version 2
run General-0-20220624-05:19:34-14076
attr configname General
attr datetime 20220624-05:19:34
attr experiment General
attr inifile omnetpp.ini
attr iterationvars $0=123
attr iterationvarsf 123-
attr measurement $0=123
attr network PolicyB
attr processid 14076
attr repetition 0
attr replication #0
attr resultdir results
attr runnumber 0
attr seedset 123

vector 0 PolicyB.queue2 "time spent on the queue" ETV
attr interpolationmode none
vector 1 PolicyB.queue2 "queue size after modification" ETV
attr interpolationmode none
vector 2 PolicyB.queue3 "time spent on the queue" ETV
attr interpolationmode none
vector 3 PolicyB.queue3 "queue size after modification" ETV
attr interpolationmode none
vector 4 PolicyB.queue5 "time spent on the queue" ETV
attr interpolationmode none
vector 5 PolicyB.queue5 "queue size after modification" ETV
attr interpolationmode none
vector 6 PolicyB.queue1 "time spent on the queue" ETV
attr interpolationmode none
vector 7 PolicyB.queue1 "queue size after modification" ETV
attr interpolationmode none
vector 8 PolicyB.queue3 "processing time with client order" ETV
attr interpolationmode none
vector 9 PolicyB.queue5 "processing time with client order" ETV
attr interpolationmode none
vector 10 PolicyB.queue4 "time spent on the queue" ETV
attr interpolationmode none
vector 11 PolicyB.queue4 "queue size after modification" ETV
attr interpolationmode none
vector 12 PolicyB.queue0 "time spent on the queue" ETV
attr interpolationmode none
vector 13 PolicyB.queue0 "queue size after modification" ETV
attr interpolationmode none
vector 14 PolicyB.queue9 "time spent on the queue" ETV
attr interpolationmode none
vector 15 PolicyB.queue9 "queue size after modification" ETV
attr interpolationmode none
vector 16 PolicyB.queue2 "processing time with client order" ETV
attr interpolationmode none
vector 17 PolicyB.queue4 "processing time with client order" ETV
attr interpolationmode none
vector 18 PolicyB.queue6 "time spent on the queue" ETV
attr interpolationmode none
vector 19 PolicyB.queue6 "queue size after modification" ETV
attr interpolationmode none
vector 20 PolicyB.queue8 "time spent on the queue" ETV
attr interpolationmode none
vector 21 PolicyB.queue8 "queue size after modification" ETV
attr interpolationmode none
vector 22 PolicyB.queue1 "processing time with client order" ETV
attr interpolationmode none
vector 23 PolicyB.queue7 "time spent on the queue" ETV
attr interpolationmode none
vector 24 PolicyB.queue7 "queue size after modification" ETV
attr interpolationmode none
vector 25 PolicyB.queue0 "processing time with client order" ETV
attr interpolationmode none
vector 26 PolicyB.queue9 "processing time with client order" ETV
attr interpolationmode none
vector 27 PolicyB.queue8 "processing time with client order" ETV
attr interpolationmode none
vector 28 PolicyB.queue6 "processing time with client order" ETV
attr interpolationmode none
vector 29 PolicyB.queue7 "processing time with client order" ETV
attr interpolationmode none
0	2	0	0
0	85	459.937	0
0	394	1773.048	0
0	408	1845.258	0
0	439	1965.026	0
0	490	2188.411	155.426
0	537	2442.702	0
0	710	3459.668	494.006
0	777	3700.191	225.001
0	931	4350.17	584.139
0	1046	4996.635	0
0	1103	5316.014	0
0	1142	5508.672	0
0	1227	5996.237	0
0	1327	6620.587	0
0	1367	6845.909	0
0	1477	7461.747	0
0	1516	7702.298	0
0	1662	8315.624	0
0	1765	8706.593	149.956
0	2053	10167.185	0
0	2160	10817.419	453.729
0	2213	11065.689	0
0	2258	11262.274	0
0	2275	11327.129	0
0	2342	11966.096	0
0	2369	12061.655	0
0	2475	12550.157	0
0	2545	12859.765	95.122
0	2656	13390.316	90.574
0	2669	13430.2	0
0	2768	13853.074	0
0	2884	14656.043	0
0	2906	14759.163	0
0	2942	14896.705	0
0	3023	15461.251	0
0	3082	15891.168	0
0	3115	16089.605	0
0	3132	16134.233	0
0	3256	16589.637	180.125
0	3304	16889.241	241.611
0	3372	17238.576	0
0	3441	17553.024	133.454
0	3558	18175.652	505.638
0	3776	19437.256	185.209
0	3803	19552.179	0
0	3873	19949.882	0
0	3936	20298.792	0
0	4039	20820.896	279.347
0	4092	20950.75	0
0	4170	21456.19	226.198
0	4265	21954.104	61.465
0	4536	23018.744	1026.163
0	4600	23293.754	1225.365
0	4629	23397.45	64.987
0	4647	23471.018	0
0	4664	23525.859	0
0	4741	23848.469	309.566
0	4785	24039.611	167.277
0	4807	24080.694	25.502
0	4844	24246.721	0
0	4923	24548.381	252.422
0	4971	24655.036	0
0	5047	25206.904	0
0	5069	25415.484	83.929
0	5110	25580.15	0
0	5118	25623.722	10.128
0	5191	25867.571	211.347
0	5223	26066.081	92.032
0	5245	26139.32	64.554
0	5311	26305.345	131.058
0	5354	26536.3	0
0	5398	26801.412	0
0	5589	27504.803	445.696
0	5666	27933.598	0
0	5874	28959.982	0
0	5908	29089.453	0
0	5939	29267.096	0
0	6026	29846.244	0
0	6057	30002.348	25.108
0	6108	30142.409	0
0	6245	30908.054	172.997
0	6297	31161.836	155.172
0	6334	31308.581	137.807
0	6462	31992.759	661.732
0	6497	32150.581	114.375
0	6614	32781.371	266.073
0	6658	32963.996	120.399
0	6689	33050.241	0
0	6721	33194.426	68.102
0	6730	33253.37	0
0	6787	33497.86	123.091
0	6833	33711.482	192.187
0	6845	33746.799	0
0	7057	34488.703	724.121
0	7146	35000.287	458.37
0	7183	35122.493	70.799
0	7211	35220.847	0
0	7268	35468.579	231.84
0	7367	35849.525	243.863
0	7398	35959.549	94.213
0	7508	36498.432	475.619
0	7554	36762.351	0
0	7648	37231.792	0
0	7802	37939.737	511.962
0	7904	38455.532	0
0	8002	38790.411	0
0	8082	39217.969	215.343
0	8102	39346.303	109.536
0	8135	39446.3	77.481
0	8288	40250.596	682.471
0	8414	40821.931	1251.042
0	8456	40973.013	0
0	8543	41744.174	0
0	8609	42143.574	0
0	8635	42225.148	0
0	8714	42667.376	0
1	2	0	0
1	85	459.937	0
1	394	1773.048	0
1	408	1845.258	0
1	439	1965.026	0
1	457	2032.985	1
1	490	2188.411	0
1	537	2442.702	0
1	614	2965.662	1
1	710	3459.668	0
1	724	3475.19	1
1	777	3700.191	0
1	793	3766.031	1
1	931	4350.17	0
1	1046	4996.635	0
1	1103	5316.014	0
1	1142	5508.672	0
1	1227	5996.237	0
1	1327	6620.587	0
1	1367	6845.909	0
1	1477	7461.747	0
1	1516	7702.298	0
1	1662	8315.624	0
1	1731	8556.637	1
1	1765	8706.593	0
1	2053	10167.185	0
1	2084	10363.69	1
1	2160	10817.419	0
1	2213	11065.689	0
1	2258	11262.274	0
1	2275	11327.129	0
1	2342	11966.096	0
1	2369	12061.655	0
1	2475	12550.157	0
1	2525	12764.643	1
1	2545	12859.765	0
1	2649	13299.742	1
1	2656	13390.316	0
1	2669	13430.2	0
1	2768	13853.074	0
1	2884	14656.043	0
1	2906	14759.163	0
1	2942	14896.705	0
1	3023	15461.251	0
1	3082	15891.168	0
1	3115	16089.605	0
1	3132	16134.233	0
1	3209	16409.512	1
1	3256	16589.637	0
1	3275	16647.63	1
1	3304	16889.241	0
1	3372	17238.576	0
1	3416	17419.57	1
1	3441	17553.024	0
1	3460	17670.014	1
1	3558	18175.652	0
1	3744	19252.047	1
1	3776	19437.256	0
1	3803	19552.179	0
1	3873	19949.882	0
1	3936	20298.792	0
1	3971	20541.549	1
1	4039	20820.896	0
1	4092	20950.75	0
1	4127	21229.992	1
1	4170	21456.19	0
1	4254	21892.639	1
1	4265	21954.104	0
1	4274	21992.581	1
1	4308	22068.389	2
1	4536	23018.744	1
1	4600	23293.754	0
1	4612	23332.463	1
1	4629	23397.45	0
1	4647	23471.018	0
1	4664	23525.859	0
1	4667	23538.903	1
1	4741	23848.469	0
1	4749	23872.334	1
1	4785	24039.611	0
1	4798	24055.192	1
1	4807	24080.694	0
1	4844	24246.721	0
1	4858	24295.959	1
1	4923	24548.381	0
1	4971	24655.036	0
1	5047	25206.904	0
1	5065	25331.555	1
1	5069	25415.484	0
1	5110	25580.15	0
1	5116	25613.594	1
1	5118	25623.722	0
1	5132	25656.224	1
1	5191	25867.571	0
1	5209	25974.049	1
1	5223	26066.081	0
1	5227	26074.766	1
1	5245	26139.32	0
1	5255	26174.287	1
1	5311	26305.345	0
1	5354	26536.3	0
1	5398	26801.412	0
1	5467	27059.107	1
1	5589	27504.803	0
1	5666	27933.598	0
1	5874	28959.982	0
1	5908	29089.453	0
1	5939	29267.096	0
1	6026	29846.244	0
1	6053	29977.24	1
1	6057	30002.348	0
1	6108	30142.409	0
1	6210	30735.057	1
1	6245	30908.054	0
1	6266	31006.664	1
1	6297	31161.836	0
1	6302	31170.774	1
1	6334	31308.581	0
1	6342	31331.027	1
1	6462	31992.759	0
1	6479	32036.206	1
1	6497	32150.581	0
1	6551	32515.298	1
1	6614	32781.371	0
1	6626	32843.597	1
1	6658	32963.996	0
1	6689	33050.241	0
1	6704	33126.324	1
1	6721	33194.426	0
1	6730	33253.37	0
1	6751	33374.769	1
1	6787	33497.86	0
1	6796	33519.295	1
1	6833	33711.482	0
1	6845	33746.799	0
1	6850	33764.582	1
1	7057	34488.703	0
1	7069	34541.917	1
1	7146	35000.287	0
1	7161	35051.694	1
1	7183	35122.493	0
1	7211	35220.847	0
1	7218	35236.739	1
1	7268	35468.579	0
1	7320	35605.662	1
1	7367	35849.525	0
1	7371	35865.336	1
1	7398	35959.549	0
1	7414	36022.813	1
1	7508	36498.432	0
1	7554	36762.351	0
1	7648	37231.792	0
1	7699	37427.775	1
1	7802	37939.737	0
1	7904	38455.532	0
1	8002	38790.411	0
1	8042	39002.626	1
1	8082	39217.969	0
1	8086	39236.767	1
1	8102	39346.303	0
1	8115	39368.819	1
1	8135	39446.3	0
1	8159	39568.125	1
1	8161	39570.889	2
1	8288	40250.596	1
1	8414	40821.931	0
1	8456	40973.013	0
1	8543	41744.174	0
1	8609	42143.574	0
1	8635	42225.148	0
1	8714	42667.376	0
2	5	8.748	0
2	24	193.298	0
2	82	446.676	0
2	118	552.682	0
2	194	914.764	0
2	258	1218.565	0
2	313	1385.407	0
2	338	1468.158	0
2	390	1738.498	0
2	474	2116.851	0
2	487	2176.921	0
2	527	2422.434	0
2	566	2590.619	0
2	770	3671.89	901.403
2	838	3995.107	0
2	943	4454.415	451.461
2	998	4677.836	0
2	1059	5061.96	0
2	1115	5340.556	0
2	1133	5465.921	0
2	1255	6076.778	0
2	1306	6366.53	0
2	1394	6954.229	0
2	1519	7711.728	0
2	1590	8005.173	0
2	1614	8078.546	0
2	1680	8355.444	0
2	1726	8555.414	0
2	1757	8674.526	0
2	1814	8879.415	0
2	1862	9080.303	0
2	1877	9224.753	0
2	1910	9348.489	0
2	1942	9553.936	0
2	1981	9743.736	0
2	2013	9906.708	0
2	2175	10863.929	0
2	2199	10986.518	0
2	2221	11115.578	0
2	2254	11245.339	0
2	2315	11767.107	0
2	2353	12040.343	0
2	2430	12349.037	0
2	2447	12391.99	0
2	2522	12749.285	0
2	2553	12890.663	0
2	2582	13014.347	0
2	2689	13538.969	504.794
2	2731	13700.541	0
2	2825	14069.569	0
2	2900	14734.31	0
2	3035	15504.112	0
2	3237	16528.484	431.691
2	3346	17086.574	0
2	3408	17413.726	151.751
2	3453	17612.645	0
2	3479	17765.624	0
2	3570	18228.624	393.975
2	3630	18569.376	0
2	3699	19036.602	0
2	3819	19601.931	0
2	3844	19820.495	0
2	3901	20104.558	0
2	3946	20351.142	0
2	3982	20601.746	0
2	4008	20709.378	0
2	4025	20787.958	0
2	4104	21050.084	71.051
2	4293	22044.275	90.718
2	4376	22487.122	433.5
2	4424	22661.626	255.014
2	4481	22832.854	163.099
2	4542	23033.294	232.932
2	4567	23160.778	121.349
2	4868	24361.357	1090.53
2	4999	24817.799	0
2	5062	25322.908	0
2	5081	25518.579	57.224
2	5149	25723.046	24.496
2	5179	25848.802	104.125
2	5274	26228.485	271.313
2	5291	26263.64	0
2	5315	26305.794	0
2	5376	26706.017	0
2	5490	27135.693	37.298
2	5540	27249.722	25.421
2	5607	27563.194	0
2	5628	27651.457	0
2	5688	28086.26	0
2	5756	28436.64	0
2	5809	28742.186	0
2	5846	28886.296	0
2	5866	28929.644	43.218
2	5929	29188.863	0
2	5978	29445.066	0
2	6009	29669.016	0
2	6358	31410.811	835.279
2	6369	31455.417	0
2	6452	31952.246	443.166
2	6504	32170.479	163
2	6534	32328.624	0
2	6666	32968.074	369.881
2	6779	33479.104	14.834
2	6874	33818.238	174.187
2	6943	34031.627	0
2	7018	34323.292	247.359
2	7101	34755.911	316.523
2	7179	35113.666	301.856
2	7240	35304.536	67.271
2	7265	35463.157	0
2	7287	35532.533	0
2	7374	35875.964	152.63
2	7402	35984.758	0
2	7483	36305.065	317.912
2	7514	36542	0
2	7559	36799.518	0
2	7589	36981.894	0
2	7676	37327.673	0
2	7735	37587.285	0
2	7767	37788.637	0
2	7842	38053.834	0
2	8139	39453.067	359.36
2	8165	39603.307	42.959
2	8245	40050.543	438.051
2	8275	40224.654	0
2	8298	40270.627	26.436
2	8388	40679.376	0
2	8450	40964.582	0
2	8484	41147.359	0
2	8496	41343.572	0
2	8710	42666.503	755.549
2	8796	43002.022	93.979
3	5	8.748	0
3	24	193.298	0
3	82	446.676	0
3	118	552.682	0
3	194	914.764	0
3	258	1218.565	0
3	313	1385.407	0
3	338	1468.158	0
3	390	1738.498	0
3	474	2116.851	0
3	487	2176.921	0
3	527	2422.434	0
3	566	2590.619	0
3	587	2770.487	1
3	770	3671.89	0
3	838	3995.107	0
3	842	4002.954	1
3	943	4454.415	0
3	998	4677.836	0
3	1059	5061.96	0
3	1115	5340.556	0
3	1133	5465.921	0
3	1255	6076.778	0
3	1306	6366.53	0
3	1394	6954.229	0
3	1519	7711.728	0
3	1590	8005.173	0
3	1614	8078.546	0
3	1680	8355.444	0
3	1726	8555.414	0
3	1757	8674.526	0
3	1814	8879.415	0
3	1862	9080.303	0
3	1877	9224.753	0
3	1910	9348.489	0
3	1942	9553.936	0
3	1981	9743.736	0
3	2013	9906.708	0
3	2175	10863.929	0
3	2199	10986.518	0
3	2221	11115.578	0
3	2254	11245.339	0
3	2315	11767.107	0
3	2353	12040.343	0
3	2430	12349.037	0
3	2447	12391.99	0
3	2522	12749.285	0
3	2553	12890.663	0
3	2582	13014.347	0
3	2585	13034.175	1
3	2689	13538.969	0
3	2731	13700.541	0
3	2825	14069.569	0
3	2900	14734.31	0
3	3035	15504.112	0
3	3118	16096.793	1
3	3237	16528.484	0
3	3346	17086.574	0
3	3378	17261.975	1
3	3408	17413.726	0
3	3453	17612.645	0
3	3479	17765.624	0
3	3488	17834.649	1
3	3570	18228.624	0
3	3630	18569.376	0
3	3699	19036.602	0
3	3819	19601.931	0
3	3844	19820.495	0
3	3901	20104.558	0
3	3946	20351.142	0
3	3982	20601.746	0
3	4008	20709.378	0
3	4025	20787.958	0
3	4100	20979.033	1
3	4104	21050.084	0
3	4263	21953.557	1
3	4293	22044.275	0
3	4297	22053.622	1
3	4364	22406.612	2
3	4376	22487.122	1
3	4424	22661.626	0
3	4432	22669.755	1
3	4469	22800.362	2
3	4481	22832.854	1
3	4542	23033.294	0
3	4546	23039.429	1
3	4567	23160.778	0
3	4593	23270.827	1
3	4868	24361.357	0
3	4999	24817.799	0
3	5062	25322.908	0
3	5076	25461.355	1
3	5081	25518.579	0
3	5146	25698.55	1
3	5149	25723.046	0
3	5155	25744.677	1
3	5179	25848.802	0
3	5207	25957.172	1
3	5274	26228.485	0
3	5291	26263.64	0
3	5315	26305.794	0
3	5376	26706.017	0
3	5476	27098.395	1
3	5490	27135.693	0
3	5523	27224.301	1
3	5540	27249.722	0
3	5607	27563.194	0
3	5628	27651.457	0
3	5688	28086.26	0
3	5756	28436.64	0
3	5809	28742.186	0
3	5846	28886.296	0
3	5849	28886.426	1
3	5866	28929.644	0
3	5929	29188.863	0
3	5978	29445.066	0
3	6009	29669.016	0
3	6193	30575.532	1
3	6358	31410.811	0
3	6369	31455.417	0
3	6385	31509.08	1
3	6452	31952.246	0
3	6470	32007.479	1
3	6504	32170.479	0
3	6534	32328.624	0
3	6578	32598.193	1
3	6666	32968.074	0
3	6775	33464.27	1
3	6779	33479.104	0
3	6825	33644.051	1
3	6874	33818.238	0
3	6943	34031.627	0
3	6947	34075.933	1
3	7018	34323.292	0
3	7048	34439.388	1
3	7101	34755.911	0
3	7122	34811.81	1
3	7179	35113.666	0
3	7220	35237.265	1
3	7240	35304.536	0
3	7265	35463.157	0
3	7287	35532.533	0
3	7333	35723.334	1
3	7374	35875.964	0
3	7402	35984.758	0
3	7406	35987.153	1
3	7483	36305.065	0
3	7514	36542	0
3	7559	36799.518	0
3	7589	36981.894	0
3	7676	37327.673	0
3	7735	37587.285	0
3	7767	37788.637	0
3	7842	38053.834	0
3	8059	39093.707	1
3	8139	39453.067	0
3	8155	39560.348	1
3	8165	39603.307	0
3	8173	39612.492	1
3	8245	40050.543	0
3	8275	40224.654	0
3	8286	40244.191	1
3	8298	40270.627	0
3	8388	40679.376	0
3	8450	40964.582	0
3	8484	41147.359	0
3	8496	41343.572	0
3	8583	41910.954	1
3	8710	42666.503	0
3	8763	42908.043	1
3	8796	43002.022	0
4	9	35.997	0
4	39	294.673	0
4	92	484.016	0
4	186	874.161	214.193
4	291	1332.356	0
4	580	2628.081	0
4	639	3078.052	260.404
4	732	3503.346	401.437
4	756	3637.155	0
4	872	4137.977	486.766
4	1038	4977.387	749.998
4	1076	5133.014	0
4	1124	5452.653	0
4	1172	5690.899	0
4	1222	5970.284	0
4	1310	6404.768	0
4	1456	7263.109	0
4	1508	7668.708	0
4	1555	7872.463	0
4	1753	8671.096	467.71
4	1795	8779.797	0
4	1847	8980.352	0
4	1932	9497.075	0
4	2016	9922.551	0
4	2100	10420.497	0
4	2151	10804.443	0
4	2235	11151.006	188.695
4	2279	11403.393	0
4	2334	11915.211	0
4	2422	12309.173	0
4	2433	12350.105	0
4	2488	12600.478	0
4	2549	12877.461	0
4	2567	12955.094	0
4	2606	13147.628	23.583
4	2660	13392.051	4.812
4	2746	13723.948	214.309
4	2821	14038.686	0
4	2895	14696.854	0
4	2917	14807.556	0
4	3139	16154.513	1038.197
4	3167	16245.983	0
4	3206	16401.071	0
4	3271	16639.644	0
4	3321	16926.236	0
4	3375	17241.043	0
4	3427	17456.977	174.873
4	3514	18034.264	560.127
4	3633	18581.851	0
4	3759	19367.599	0
4	3792	19485.24	0
4	3965	20460.475	0
4	4052	20895.731	0
4	4165	21403.018	0
4	4198	21499.307	0
4	4242	21793.937	51.78
4	4276	22000.235	80.807
4	4352	22340.783	340.378
4	4381	22501.965	213.311
4	4456	22717.065	214.481
4	4512	22926.689	164.238
4	4562	23130.394	193.919
4	4759	23901.363	836.508
4	4875	24385.005	101.527
4	4901	24451.876	0
4	4936	24560.364	0
4	5009	24855.636	0
4	5034	25119.855	0
4	5044	25188.841	0
4	5094	25529.72	0
4	5107	25578.469	0
4	5157	25752.116	113.476
4	5357	26542.051	743.927
4	5529	27242.427	149.861
4	5575	27415.627	151.287
4	5622	27627.514	0
4	5819	28790.002	0
4	5878	28983.569	0
4	5947	29315.974	0
4	6019	29820.332	0
4	6116	30196.208	0
4	6142	30386.669	0
4	6223	30807.007	227.42
4	6289	31139.742	272.951
4	6376	31481.025	383.207
4	6436	31810.636	0
4	6530	32327.486	515.506
4	6563	32537.712	0
4	6652	32953.606	0
4	6737	33316.995	0
4	6747	33362.352	0
4	6768	33456.146	0
4	6791	33499.2	4.129
4	6860	33781.304	152.775
4	6890	33904.804	0
4	6910	33948.541	0.421
4	6977	34197.112	0
4	7003	34257.87	0
4	7139	34955.497	624.142
4	7154	35019.255	31.196
4	7447	36132.9	1039.597
4	7575	36887.179	0
4	7685	37339.158	0
4	7724	37563.9	46.844
4	7776	37811.53	62.873
4	7821	38005.07	64.812
4	7900	38417.035	0
4	7933	38574.918	0
4	7981	38732.84	0
4	8106	39353.347	405.082
4	8169	39610.969	191.057
4	8198	39804.034	0
4	8229	39910.106	7.324
4	8313	40357.816	191.32
4	8403	40786.752	0
4	8440	40928.796	0
4	8534	41721.017	0
4	8578	41898.728	0
4	8612	42151.478	0
5	9	35.997	0
5	39	294.673	0
5	92	484.016	0
5	146	659.968	1
5	186	874.161	0
5	291	1332.356	0
5	580	2628.081	0
5	594	2817.648	1
5	639	3078.052	0
5	648	3101.909	1
5	732	3503.346	0
5	756	3637.155	0
5	761	3651.211	1
5	872	4137.977	0
5	891	4227.389	1
5	1038	4977.387	0
5	1076	5133.014	0
5	1124	5452.653	0
5	1172	5690.899	0
5	1222	5970.284	0
5	1310	6404.768	0
5	1456	7263.109	0
5	1508	7668.708	0
5	1555	7872.463	0
5	1645	8203.386	1
5	1753	8671.096	0
5	1795	8779.797	0
5	1847	8980.352	0
5	1932	9497.075	0
5	2016	9922.551	0
5	2100	10420.497	0
5	2151	10804.443	0
5	2194	10962.311	1
5	2235	11151.006	0
5	2279	11403.393	0
5	2334	11915.211	0
5	2422	12309.173	0
5	2433	12350.105	0
5	2488	12600.478	0
5	2549	12877.461	0
5	2567	12955.094	0
5	2604	13124.045	1
5	2606	13147.628	0
5	2654	13387.239	1
5	2660	13392.051	0
5	2682	13509.639	1
5	2746	13723.948	0
5	2821	14038.686	0
5	2895	14696.854	0
5	2917	14807.556	0
5	2988	15116.316	1
5	3139	16154.513	0
5	3167	16245.983	0
5	3206	16401.071	0
5	3271	16639.644	0
5	3321	16926.236	0
5	3375	17241.043	0
5	3388	17282.104	1
5	3427	17456.977	0
5	3432	17474.137	1
5	3514	18034.264	0
5	3633	18581.851	0
5	3759	19367.599	0
5	3792	19485.24	0
5	3965	20460.475	0
5	4052	20895.731	0
5	4165	21403.018	0
5	4198	21499.307	0
5	4232	21742.157	1
5	4242	21793.937	0
5	4259	21919.428	1
5	4276	22000.235	0
5	4280	22000.405	1
5	4340	22288.654	2
5	4352	22340.783	1
5	4381	22501.965	0
5	4385	22502.584	1
5	4456	22717.065	0
5	4465	22762.451	1
5	4512	22926.689	0
5	4516	22936.475	1
5	4553	23064.855	2
5	4562	23130.394	1
5	4759	23901.363	0
5	4852	24283.478	1
5	4875	24385.005	0
5	4901	24451.876	0
5	4936	24560.364	0
5	5009	24855.636	0
5	5034	25119.855	0
5	5044	25188.841	0
5	5094	25529.72	0
5	5107	25578.469	0
5	5126	25638.64	1
5	5157	25752.116	0
5	5171	25798.124	1
5	5357	26542.051	0
5	5472	27092.566	1
5	5529	27242.427	0
5	5544	27264.34	1
5	5575	27415.627	0
5	5622	27627.514	0
5	5819	28790.002	0
5	5878	28983.569	0
5	5947	29315.974	0
5	6019	29820.332	0
5	6116	30196.208	0
5	6142	30386.669	0
5	6195	30579.587	1
5	6223	30807.007	0
5	6238	30866.791	1
5	6285	31097.818	2
5	6289	31139.742	1
5	6376	31481.025	0
5	6436	31810.636	0
5	6439	31811.98	1
5	6530	32327.486	0
5	6563	32537.712	0
5	6652	32953.606	0
5	6737	33316.995	0
5	6747	33362.352	0
5	6768	33456.146	0
5	6785	33495.071	1
5	6791	33499.2	0
5	6823	33628.529	1
5	6860	33781.304	0
5	6890	33904.804	0
5	6908	33948.12	1
5	6910	33948.541	0
5	6977	34197.112	0
5	7003	34257.87	0
5	7025	34331.355	1
5	7139	34955.497	0
5	7144	34988.059	1
5	7154	35019.255	0
5	7165	35093.303	1
5	7447	36132.9	0
5	7575	36887.179	0
5	7685	37339.158	0
5	7714	37517.056	1
5	7724	37563.9	0
5	7761	37748.657	1
5	7776	37811.53	0
5	7806	37940.258	1
5	7821	38005.07	0
5	7900	38417.035	0
5	7933	38574.918	0
5	7981	38732.84	0
5	8032	38948.265	1
5	8106	39353.347	0
5	8128	39419.912	1
5	8169	39610.969	0
5	8198	39804.034	0
5	8223	39902.782	1
5	8229	39910.106	0
5	8261	40166.496	1
5	8313	40357.816	0
5	8403	40786.752	0
5	8440	40928.796	0
5	8534	41721.017	0
5	8578	41898.728	0
5	8612	42151.478	0
5	8800	43007.999	1
6	13	58.965	0
6	70	391.539	0
6	112	546.186	0
6	190	892.472	0
6	233	1081.073	0
6	301	1341.709	0
6	354	1549.941	0
6	462	2043.341	38.23
6	520	2395.951	0
6	584	2767.675	0
6	694	3390.768	0
6	795	3768.427	357.925
6	880	4194.412	420.735
6	903	4259.575	0
6	947	4461.425	10.298
6	989	4618.696	130.323
6	1031	4959.852	0
6	1085	5160.454	0
6	1202	5907.602	0
6	1234	6023.306	0
6	1299	6258.332	0
6	1493	7572.182	0
6	1604	8039.865	0
6	1631	8140.866	0
6	1653	8286.071	0
6	1676	8348.593	0
6	1776	8716.861	60.926
6	1817	8880.924	0
6	1870	9136.492	0
6	1939	9537.362	0
6	1991	9833.715	0
6	2034	10096.965	0
6	2045	10130.832	0
6	2069	10270.493	0
6	2157	10816.533	0
6	2247	11217.088	0
6	2291	11548.71	0
6	2389	12120.203	0
6	2441	12387.916	0
6	2563	12951.726	124.089
6	2594	13058.491	11.282
6	2635	13243.767	0
6	2696	13561.08	205.442
6	2708	13637.483	0
6	2763	13809.332	107.841
6	2845	14271.784	0
6	3006	15341.555	0
6	3123	16109.231	0
6	3181	16281.02	0
6	3233	16472.307	0
6	3297	16857.261	0
6	3356	17120.108	12.631
6	3499	17951.029	634.376
6	3594	18336.387	0
6	3707	19064.197	0
6	3876	19967.4	0
6	4095	20951.289	0
6	4114	21103.287	0
6	4162	21400.887	0
6	4325	22171.624	542.187
6	4367	22444.133	427.578
6	4417	22616.839	277.839
6	4428	22666.771	88.05
6	4444	22699.848	49.983
6	4596	23282.274	529.044
6	4763	23917.246	897.07
6	4812	24087.551	48.6
6	4883	24412.63	0
6	4964	24638.285	0
6	5027	25052.6	0
6	5278	26235.605	539.579
6	5330	26395.061	0
6	5423	26915.147	34.191
6	5579	27439.904	344.73
6	5613	27588.391	0
6	5691	28090.866	0
6	5734	28280.227	0
6	5766	28501.171	0
6	5816	28773.552	0
6	5960	29346.381	0
6	6040	29916.466	0
6	6092	30105.908	0
6	6123	30260.119	0
6	6171	30506.026	0
6	6220	30791.393	0
6	6348	31357.881	364.258
6	6559	32535.824	516.554
6	6590	32658.233	0
6	6693	33096.146	101.466
6	6802	33548.994	390.542
6	6866	33811.63	141.275
6	6897	33926.526	87
6	6932	33998.058	68.207
6	6999	34240.309	0
6	7014	34319.635	56.409
6	7038	34373.687	17.829
6	7077	34574.877	116.301
6	7150	35001.143	236.332
6	7169	35107.303	54.351
6	7335	35751.379	639.803
6	7431	36082.161	313.682
6	7479	36302.575	135.486
6	7538	36689.343	0
6	7551	36759.69	0
6	7605	37027.265	0
6	7642	37221.501	0
6	7666	37289.29	0
6	7793	37887.556	510.359
6	7882	38209.896	154.036
6	8016	38879.933	0
6	8038	38960.967	0
6	8056	39080.439	0
6	8070	39151.898	8.412
6	8175	39632.169	300.534
6	8264	40197.512	430.493
6	8320	40362.226	0
6	8370	40578.418	0
6	8461	41011.302	0
6	8546	41747.383	0
6	8573	41866.637	0
6	8586	41955.733	50.859
6	8627	42199.043	0
6	8662	42326.62	0
6	8682	42449.661	0
6	8700	42646.169	0
7	13	58.965	0
7	70	391.539	0
7	112	546.186	0
7	190	892.472	0
7	233	1081.073	0
7	301	1341.709	0
7	354	1549.941	0
7	453	2005.111	1
7	462	2043.341	0
7	520	2395.951	0
7	584	2767.675	0
7	694	3390.768	0
7	697	3410.502	1
7	795	3768.427	0
7	799	3773.677	1
7	880	4194.412	0
7	903	4259.575	0
7	941	4451.127	1
7	947	4461.425	0
7	959	4488.373	1
7	989	4618.696	0
7	1031	4959.852	0
7	1085	5160.454	0
7	1202	5907.602	0
7	1234	6023.306	0
7	1299	6258.332	0
7	1493	7572.182	0
7	1604	8039.865	0
7	1631	8140.866	0
7	1653	8286.071	0
7	1676	8348.593	0
7	1748	8655.935	1
7	1776	8716.861	0
7	1817	8880.924	0
7	1870	9136.492	0
7	1939	9537.362	0
7	1991	9833.715	0
7	2034	10096.965	0
7	2045	10130.832	0
7	2069	10270.493	0
7	2157	10816.533	0
7	2247	11217.088	0
7	2291	11548.71	0
7	2389	12120.203	0
7	2441	12387.916	0
7	2534	12827.637	1
7	2563	12951.726	0
7	2592	13047.209	1
7	2594	13058.491	0
7	2635	13243.767	0
7	2652	13355.638	1
7	2696	13561.08	0
7	2708	13637.483	0
7	2734	13701.491	1
7	2763	13809.332	0
7	2845	14271.784	0
7	3006	15341.555	0
7	3123	16109.231	0
7	3181	16281.02	0
7	3233	16472.307	0
7	3297	16857.261	0
7	3351	17107.477	1
7	3356	17120.108	0
7	3393	17316.653	1
7	3499	17951.029	0
7	3594	18336.387	0
7	3707	19064.197	0
7	3876	19967.4	0
7	4095	20951.289	0
7	4114	21103.287	0
7	4162	21400.887	0
7	4215	21629.437	1
7	4282	22016.555	2
7	4325	22171.624	1
7	4350	22339	2
7	4367	22444.133	1
7	4414	22578.721	2
7	4417	22616.839	1
7	4422	22649.865	2
7	4428	22666.771	1
7	4444	22699.848	0
7	4463	22753.23	1
7	4540	23020.176	2
7	4596	23282.274	1
7	4763	23917.246	0
7	4783	24038.951	1
7	4812	24087.551	0
7	4883	24412.63	0
7	4964	24638.285	0
7	5027	25052.6	0
7	5144	25696.026	1
7	5278	26235.605	0
7	5330	26395.061	0
7	5417	26880.956	1
7	5423	26915.147	0
7	5474	27095.174	1
7	5579	27439.904	0
7	5613	27588.391	0
7	5691	28090.866	0
7	5734	28280.227	0
7	5766	28501.171	0
7	5816	28773.552	0
7	5960	29346.381	0
7	6040	29916.466	0
7	6092	30105.908	0
7	6123	30260.119	0
7	6171	30506.026	0
7	6220	30791.393	0
7	6264	30993.623	1
7	6348	31357.881	0
7	6472	32019.27	1
7	6559	32535.824	0
7	6590	32658.233	0
7	6675	32994.68	1
7	6693	33096.146	0
7	6710	33158.452	1
7	6802	33548.994	0
7	6829	33670.355	1
7	6866	33811.63	0
7	6878	33839.526	1
7	6897	33926.526	0
7	6901	33929.851	1
7	6932	33998.058	0
7	6999	34240.309	0
7	7006	34263.226	1
7	7014	34319.635	0
7	7035	34355.858	1
7	7038	34373.687	0
7	7051	34458.576	1
7	7077	34574.877	0
7	7109	34764.811	1
7	7150	35001.143	0
7	7163	35052.952	1
7	7169	35107.303	0
7	7177	35111.576	1
7	7335	35751.379	0
7	7339	35768.479	1
7	7431	36082.161	0
7	7461	36167.089	1
7	7479	36302.575	0
7	7538	36689.343	0
7	7551	36759.69	0
7	7605	37027.265	0
7	7642	37221.501	0
7	7666	37289.29	0
7	7694	37377.197	1
7	7793	37887.556	0
7	7846	38055.86	1
7	7882	38209.896	0
7	8016	38879.933	0
7	8038	38960.967	0
7	8056	39080.439	0
7	8062	39143.486	1
7	8070	39151.898	0
7	8100	39331.635	1
7	8175	39632.169	0
7	8189	39767.019	1
7	8264	40197.512	0
7	8320	40362.226	0
7	8370	40578.418	0
7	8461	41011.302	0
7	8546	41747.383	0
7	8573	41866.637	0
7	8581	41904.874	1
7	8586	41955.733	0
7	8627	42199.043	0
7	8662	42326.62	0
7	8682	42449.661	0
7	8700	42646.169	0
7	8765	42933.643	1
8	18	170.771	162.023
8	43	324.18	130.882
8	106	540.814	94.138
8	161	732.471	179.789
8	244	1133.79	219.026
8	282	1315.59	97.025
8	334	1456.955	71.548
8	378	1692.149	223.991
8	471	2113.567	375.069
8	484	2161.43	44.579
8	523	2414.295	237.374
8	557	2536.626	114.192
8	770	3671.89	1081.271
8	830	3931.868	259.978
8	943	4454.415	459.308
8	976	4585.639	131.224
8	1021	4872.372	194.536
8	1094	5278.069	216.109
8	1130	5460.847	120.291
8	1241	6042.159	576.238
8	1303	6359.864	283.086
8	1377	6891.558	525.028
8	1502	7630.649	676.42
8	1587	7992.366	280.638
8	1607	8053.216	48.043
8	1656	8301.514	222.968
8	1707	8450.514	95.07
8	1750	8661.003	105.589
8	1805	8797.019	122.493
8	1856	9068.159	188.744
8	1873	9165.704	85.401
8	1907	9342.055	117.302
8	1920	9400.887	52.398
8	1971	9705.99	152.054
8	2010	9905.931	162.195
8	2118	10496.172	589.464
8	2196	10962.424	98.495
8	2216	11076.813	90.295
8	2251	11225.147	109.569
8	2298	11598.65	353.311
8	2328	11883.871	116.764
8	2419	12306.999	266.656
8	2444	12391.938	42.901
8	2519	12724.777	332.787
8	2541	12847.889	98.604
8	2579	13001.271	110.608
8	2689	13538.969	524.622
8	2723	13692.685	153.716
8	2811	14025.637	325.096
8	2867	14541.751	472.182
8	3032	15504.05	769.74
8	3237	16528.484	1024.372
8	3342	17065.638	537.154
8	3408	17413.726	327.152
8	3450	17584.856	171.13
8	3476	17741.348	128.703
8	3570	18228.624	463
8	3601	18358.114	129.49
8	3679	18908.994	339.618
8	3799	19513.921	477.319
8	3837	19721.521	119.59
8	3898	20100.417	279.922
8	3926	20214.696	110.138
8	3976	20561.052	209.91
8	3998	20678.71	76.964
8	4022	20750.596	41.218
8	4104	21050.084	262.126
8	4293	22044.275	994.191
8	4376	22487.122	442.847
8	4424	22661.626	174.504
8	4481	22832.854	171.228
8	4542	23033.294	200.44
8	4567	23160.778	127.484
8	4868	24361.357	1200.579
8	4986	24682.192	320.835
8	5006	24851.496	33.697
8	5081	25518.579	195.671
8	5149	25723.046	204.467
8	5179	25848.802	125.756
8	5274	26228.485	379.683
8	5288	26260.796	32.311
8	5307	26296.417	32.777
8	5362	26554.557	248.763
8	5490	27135.693	429.676
8	5540	27249.722	114.029
8	5598	27539.987	290.265
8	5625	27644.754	81.56
8	5669	27939.026	287.569
8	5706	28116.775	30.515
8	5787	28719.793	283.153
8	5843	28882.055	139.869
8	5866	28929.644	43.348
8	5912	29109.644	180
8	5975	29437.6	248.737
8	6006	29663.216	218.15
8	6358	31410.811	1741.795
8	6366	31442.96	32.149
8	6452	31952.246	496.829
8	6504	32170.479	218.233
8	6527	32323.046	152.567
8	6666	32968.074	639.45
8	6779	33479.104	511.03
8	6874	33818.238	339.134
8	6937	34006.422	188.184
8	7018	34323.292	291.665
8	7101	34755.911	432.619
8	7179	35113.666	357.755
8	7240	35304.536	190.87
8	7256	35365.636	61.1
8	7284	35528.611	65.454
8	7374	35875.964	343.431
8	7395	35957.97	82.006
8	7483	36305.065	320.307
8	7494	36424.16	119.095
8	7545	36723.593	181.593
8	7579	36893.683	94.165
8	7662	37265.789	283.895
8	7728	37567.818	240.145
8	7763	37758.057	170.772
8	7828	38014.052	225.415
8	8139	39453.067	1399.233
8	8165	39603.307	150.24
8	8245	40050.543	447.236
8	8272	40211.34	160.797