version 2
run General-0-20220310-17:33:40-16752
attr configname General
attr datetime 20220310-17:33:40
attr experiment General
attr inifile omnetpp.ini
attr iterationvars $0=456
attr iterationvarsf 456-
attr measurement $0=456
attr network PolicyB
attr processid 16752
attr repetition 0
attr replication #0
attr resultdir results
attr runnumber 0
attr seedset 456

vector 0 PolicyB.queue5 "time spent on the queue" ETV
attr interpolationmode none
vector 1 PolicyB.queue5 "queue size after modification" ETV
attr interpolationmode none
vector 2 PolicyB.queue4 "time spent on the queue" ETV
attr interpolationmode none
vector 3 PolicyB.queue4 "queue size after modification" ETV
attr interpolationmode none
vector 4 PolicyB.queue6 "time spent on the queue" ETV
attr interpolationmode none
vector 5 PolicyB.queue6 "queue size after modification" ETV
attr interpolationmode none
vector 6 PolicyB.queue8 "time spent on the queue" ETV
attr interpolationmode none
vector 7 PolicyB.queue8 "queue size after modification" ETV
attr interpolationmode none
vector 8 PolicyB.queue3 "time spent on the queue" ETV
attr interpolationmode none
vector 9 PolicyB.queue3 "queue size after modification" ETV
attr interpolationmode none
vector 10 PolicyB.queue2 "time spent on the queue" ETV
attr interpolationmode none
vector 11 PolicyB.queue2 "queue size after modification" ETV
attr interpolationmode none
vector 12 PolicyB.queue5 "processing time with client order" ETV
attr interpolationmode none
vector 13 PolicyB.queue4 "processing time with client order" ETV
attr interpolationmode none
vector 14 PolicyB.queue6 "processing time with client order" ETV
attr interpolationmode none
vector 15 PolicyB.queue3 "processing time with client order" ETV
attr interpolationmode none
vector 16 PolicyB.queue0 "time spent on the queue" ETV
attr interpolationmode none
vector 17 PolicyB.queue0 "queue size after modification" ETV
attr interpolationmode none
vector 18 PolicyB.queue1 "time spent on the queue" ETV
attr interpolationmode none
vector 19 PolicyB.queue1 "queue size after modification" ETV
attr interpolationmode none
vector 20 PolicyB.queue8 "processing time with client order" ETV
attr interpolationmode none
vector 21 PolicyB.queue1 "processing time with client order" ETV
attr interpolationmode none
vector 22 PolicyB.queue2 "processing time with client order" ETV
attr interpolationmode none
vector 23 PolicyB.queue9 "time spent on the queue" ETV
attr interpolationmode none
vector 24 PolicyB.queue9 "queue size after modification" ETV
attr interpolationmode none
vector 25 PolicyB.queue7 "time spent on the queue" ETV
attr interpolationmode none
vector 26 PolicyB.queue7 "queue size after modification" ETV
attr interpolationmode none
vector 27 PolicyB.queue9 "processing time with client order" ETV
attr interpolationmode none
vector 28 PolicyB.queue0 "processing time with client order" ETV
attr interpolationmode none
0	2	0	0
0	73	202.955	0
0	164	552.017	0
1	2	0	0
1	73	202.955	0
1	164	552.017	0
2	5	3.56	0
2	36	76.024	0
2	113	310.851	0
2	137	447.914	0
2	158	550.306	0
3	5	3.56	0
3	36	76.024	0
3	113	310.851	0
3	137	447.914	0
3	158	550.306	0
4	8	11.041	0
4	33	72.865	0
4	108	271.766	0
4	176	582.345	0
5	8	11.041	0
5	33	72.865	0
5	108	271.766	0
5	176	582.345	0
6	11	13.629	0
6	70	194.027	0
6	145	504.995	0
7	11	13.629	0
7	70	194.027	0
7	145	504.995	0
8	18	47.666	0
8	56	141.807	0
8	132	421.768	0
8	161	551.146	0
9	18	47.666	0
9	56	141.807	0
9	132	421.768	0
9	161	551.146	0
10	21	55.718	0
10	123	409.088	0
10	179	595.434	0
11	21	55.718	0
11	123	409.088	0
11	179	595.434	0
12	24	59.97	59.97
12	151	516.074	313.119
13	27	60.535	56.975
13	105	261.666	185.642
13	117	371.94	61.089
13	142	502.919	55.005
14	30	65.449	54.408
14	84	226.58	153.715
14	129	416.232	144.466
15	40	82.431	34.765
15	92	250.2	108.393
15	154	527.93	106.162
16	44	99.229	0
16	170	573.208	0
17	44	99.229	0
17	170	573.208	0
18	49	116.108	0
18	67	192.444	0
18	126	415.889	0
18	182	597.47	0
19	49	116.108	0
19	67	192.444	0
19	126	415.889	0
19	182	597.47	0
20	52	127.423	113.794
20	96	257.538	63.511
21	61	176.044	59.936
21	88	234.224	41.78
21	167	568.013	152.124
22	64	180.612	124.894
22	148	514.285	105.197
23	76	206.112	0
23	102	260.674	0
24	76	206.112	0
24	102	260.674	0
25	79	221.761	0
26	79	221.761	0
27	99	257.802	51.69
28	120	385.889	286.66
vector 29 PolicyB.queue7 "processing time with client order" ETV
attr interpolationmode none
0	215	711.489	0
0	267	868.397	0
0	361	1122.88	0
0	449	1523.668	0
0	595	1996.166	0
0	730	2338.88	0
0	797	2514.377	12.373
0	909	2814.175	242.461
0	969	2948.809	0
0	1095	3407.284	372.004
0	1160	3635.772	434.719
0	1278	3942.537	301.64
0	1310	4047.362	315.736
0	1549	4718.522	577.034
0	1631	4894.728	651.118
0	1713	5096.848	163.454
0	1792	5320.581	337.007
0	1825	5368.607	24.447
0	1899	5660.345	162.457
0	1928	5718.686	28.929
0	1966	5836.484	31.586
0	2016	5938.25	100.305
0	2066	6045.53	99.23
0	2096	6181.393	67.713
0	2158	6321.726	117.707
0	2207	6471.109	130.035
0	2242	6568.433	205.089
0	2263	6620.817	0
0	2286	6685.75	35.846
0	2328	6809.575	153.127
0	2344	6844.139	102.452
0	2362	6899.383	60.997
0	2491	7232.112	242.14
0	2543	7403.374	155.511
0	2570	7457.435	0
0	2597	7513.816	33.75
0	2633	7586.653	44.752
0	2655	7661.711	29.973
0	2834	8185.848	423.4
0	2922	8353.05	69.486
0	2997	8560.62	0
0	3026	8605.595	0
0	3047	8653.959	13.135
0	3121	8801.833	111.463
0	3196	9048.717	0
0	3244	9272.216	0
0	3288	9443.879	0
0	3321	9563.043	0
0	3350	9631.163	0
0	3467	10057.085	80.305
0	3662	10467.316	388.86
0	3767	10788.47	289.666
0	3821	10905.045	96.879
0	3851	10961.164	41.68
0	3948	11179.115	212.754
0	3980	11235.15	38.485
0	4008	11321.132	80.792
0	4082	11610.292	0
0	4130	11716.181	0
0	4456	12676.299	764.884
0	4487	12763.915	633.744
0	4520	12835.378	176.952
0	4587	12999.985	303.101
0	4639	13128.24	261.319
0	4716	13306.432	287.398
0	4796	13595.888	436.973
0	4804	13636.346	209.991
0	4837	13754.795	113.181
0	4891	13905.564	245.708
0	4927	13970.062	195.496
0	4967	14084.136	177.382
0	5137	14560.146	421.02
0	5272	14876.311	680.803
0	5337	15046.332	145.507
0	5378	15126.522	78.351
0	5514	15555.567	412.936
0	5591	15791.403	84.581
0	5619	15890.7	0
0	5638	15942.141	0
0	5660	16032.867	18.6
0	5705	16162.529	0
0	5794	16387.868	200.768
0	5878	16622.885	0
0	5897	16679.662	0
0	5967	16884.232	0
0	5997	16990.651	75.03
0	6028	17082.772	0
0	6050	17161.8	0
0	6071	17216.391	0
0	6086	17263.623	0
0	6160	17573.229	0
0	6180	17613.381	0
0	6278	17902.329	50.576
0	6402	18265.473	228.75
0	6441	18352.873	81.683
0	6477	18452.817	177.657
0	6569	18773.448	179.792
0	6624	18977.741	104.144
0	6784	19345.568	364.415
0	6838	19433.256	0
0	6914	19648.05	0
0	6950	19753.76	0
0	7060	19999.79	215.91
0	7128	20201.905	0
0	7149	20291.699	0
0	7224	20491.212	9.836
0	7294	20775.593	78.929
0	7474	21307.849	90.648
0	7535	21513.17	85.649
0	7599	21687.152	0
0	7657	21982.092	0
0	7689	22069.427	0
0	7740	22291.308	0
0	7790	22366.454	57.301
0	7857	22633.882	189.94
0	8142	23318.291	658.188
0	8165	23361.13	190.781
0	8226	23485.164	0
0	8279	23686.063	0
0	8293	23737.206	0
0	8317	23821.316	0
0	8380	24021.491	0
0	8545	24631.877	0
0	8607	24782.856	0
0	8665	24894.834	0
0	8746	25127.059	0
0	8780	25202.705	0
0	8850	25376.737	0
0	8890	25534.125	0
0	8914	25586.739	0
0	8994	25839.164	0
0	9130	26294.055	0
0	9223	26675.177	0
0	9269	26805.055	33.267
0	9329	26999.242	44.138
0	9374	27149.662	0
0	9419	27214.674	0
0	9510	27547.614	314.859
0	9565	27728.534	0
0	9615	27926.234	0
0	9644	28027.773	0
0	9657	28070.927	0
0	9678	28105.052	0
0	9694	28170.93	26.393
0	9730	28253.392	0
0	9862	28622.06	326.429
0	9896	28726.665	43.203
0	9930	28794.988	0
0	10026	29039.686	44.125
0	10058	29105.221	0
0	10098	29187.681	0
0	10149	29350.434	0
0	10205	29474.386	0
0	10405	30148.428	552.912
0	10468	30275.392	123.166
0	10519	30421.129	116.538
0	10532	30455.737	0.467
0	10556	30508.154	0
0	10584	30568.34	0
0	10631	30677.593	0
0	10682	30827.203	0
0	10706	30872.581	0
0	10803	31107.365	0
0	10858	31306.099	142.848
0	10891	31410.754	43.048
0	10957	31576.135	0
0	11028	31779.334	0
0	11126	32045.493	0
0	11163	32180.481	0
0	11197	32264.524	67.805
0	11319	32650.036	0
0	11383	32868.15	0
0	11399	32946.925	0
0	11437	33089.599	0
0	11530	33322.713	233.06
0	11607	33599.14	412.617
0	11628	33660.679	48.545
0	11771	33992.215	214.996
0	11840	34092.338	95.899
0	11856	34125.636	0
0	11947	34411.026	0
0	12014	34592.896	0
0	12034	34657.553	0
0	12110	34871.574	0
0	12220	35149.199	187.472
0	12243	35207.62	0
0	12268	35302.658	76.631
0	12301	35368.742	53.155
0	12338	35455.146	80.667
0	12359	35500.409	26.725
0	12400	35595.646	77.567
0	12422	35667.901	0
0	12545	35998.968	313.015
0	12595	36106.675	67.722
0	12645	36219.538	86.258
0	12685	36353.833	126.318
0	12725	36458.791	60.83
0	13071	37311.424	851.425
0	13169	37608.916	882.117
0	13235	37749.021	108.229
0	13396	38210.395	309.566
0	13433	38316.185	77.95
0	13526	38554.786	214.607
0	13560	38638.583	0
0	13599	38682.72	0
0	13640	38740.353	0
0	13716	38999.783	156.902
0	13773	39134.902	0
0	13799	39190.4	38.363
0	13956	39609.424	277.258
0	14073	39918.701	0
0	14126	40121.15	0
0	14158	40216.304	0
0	14257	40433.42	0
0	14323	40672.616	0
0	14382	40886.222	0
0	14415	40993.182	0
0	14521	41448.837	156.784
0	14574	41602.392	0
0	14630	41773.539	107.244
0	14660	41877.849	0
0	14731	42141.539	0
0	14799	42290.772	28.704
0	14835	42408.494	0
0	14864	42460.363	0
0	14899	42550.851	50.289
0	14979	42782.586	228.614
0	15034	42937.814	2.303
1	215	711.489	0
1	267	868.397	0
1	361	1122.88	0
1	449	1523.668	0
1	595	1996.166	0
1	730	2338.88	0
1	794	2502.004	1
1	797	2514.377	0
1	818	2571.714	1
1	909	2814.175	0
1	969	2948.809	0
1	1004	3035.28	1
1	1042	3201.053	2
1	1095	3407.284	1
1	1160	3635.772	0
1	1164	3640.897	1
1	1197	3731.626	2
1	1278	3942.537	1
1	1310	4047.362	0
1	1340	4141.488	1
1	1385	4243.61	2
1	1549	4718.522	1
1	1631	4894.728	0
1	1654	4933.394	1
1	1682	4983.574	2
1	1713	5096.848	1
1	1792	5320.581	0
1	1805	5344.16	1
1	1825	5368.607	0
1	1863	5497.888	1
1	1899	5660.345	0
1	1908	5689.757	1
1	1928	5718.686	0
1	1956	5804.898	1
1	1966	5836.484	0
1	1970	5837.945	1
1	2016	5938.25	0
1	2021	5946.3	1
1	2066	6045.53	0
1	2077	6113.68	1
1	2096	6181.393	0
1	2109	6204.019	1
1	2158	6321.726	0
1	2165	6341.074	1
1	2174	6363.344	2
1	2207	6471.109	1
1	2242	6568.433	0
1	2263	6620.817	0
1	2269	6649.904	1
1	2272	6656.448	2
1	2286	6685.75	1
1	2305	6741.687	2
1	2328	6809.575	1
1	2340	6838.386	2
1	2344	6844.139	1
1	2362	6899.383	0
1	2395	6989.972	1
1	2491	7232.112	0
1	2496	7247.863	1
1	2543	7403.374	0
1	2570	7457.435	0
1	2583	7480.066	1
1	2597	7513.816	0
1	2614	7541.901	1
1	2633	7586.653	0
1	2641	7631.738	1
1	2655	7661.711	0
1	2696	7762.448	1
1	2834	8185.848	0
1	2892	8283.564	1
1	2922	8353.05	0
1	2997	8560.62	0
1	3026	8605.595	0
1	3038	8640.824	1
1	3047	8653.959	0
1	3067	8690.37	1
1	3121	8801.833	0
1	3196	9048.717	0
1	3244	9272.216	0
1	3288	9443.879	0
1	3321	9563.043	0
1	3350	9631.163	0
1	3420	9976.78	1
1	3467	10057.085	0
1	3480	10078.456	1
1	3662	10467.316	0
1	3671	10498.804	1
1	3767	10788.47	0
1	3779	10808.166	1
1	3821	10905.045	0
1	3837	10919.484	1
1	3851	10961.164	0
1	3855	10966.361	1
1	3948	11179.115	0
1	3960	11196.665	1
1	3980	11235.15	0
1	3984	11240.34	1
1	4008	11321.132	0
1	4082	11610.292	0
1	4130	11716.181	0
1	4184	11911.415	1
1	4264	12130.171	2
1	4453	12658.426	3
1	4456	12676.299	2
1	4462	12696.884	3
1	4487	12763.915	2
1	4520	12835.378	1
1	4543	12866.921	2
1	4587	12999.985	1
1	4597	13019.034	2
1	4639	13128.24	1
1	4647	13158.915	2
1	4716	13306.432	1
1	4754	13426.355	2
1	4796	13595.888	1
1	4804	13636.346	0
1	4808	13641.614	1
1	4812	13659.856	2
1	4837	13754.795	1
1	4841	13774.566	2
1	4891	13905.564	1
1	4895	13906.754	2
1	4927	13970.062	1
1	4967	14084.136	0
1	4987	14139.126	1
1	5008	14195.508	2
1	5137	14560.146	1
1	5272	14876.311	0
1	5281	14900.825	1
1	5337	15046.332	0
1	5345	15048.171	1
1	5378	15126.522	0
1	5386	15142.631	1
1	5514	15555.567	0
1	5560	15706.822	1
1	5591	15791.403	0
1	5619	15890.7	0
1	5638	15942.141	0
1	5655	16014.267	1
1	5660	16032.867	0
1	5705	16162.529	0
1	5719	16187.1	1
1	5794	16387.868	0
1	5878	16622.885	0
1	5897	16679.662	0
1	5967	16884.232	0
1	5980	16915.621	1
1	5997	16990.651	0
1	6028	17082.772	0
1	6050	17161.8	0
1	6071	17216.391	0
1	6086	17263.623	0
1	6160	17573.229	0
1	6180	17613.381	0
1	6251	17851.753	1
1	6278	17902.329	0
1	6317	18036.723	1
1	6402	18265.473	0
1	6406	18271.19	1
1	6408	18275.16	2
1	6441	18352.873	1
1	6477	18452.817	0
1	6516	18593.656	1
1	6569	18773.448	0
1	6584	18873.597	1
1	6624	18977.741	0
1	6628	18981.153	1
1	6784	19345.568	0
1	6838	19433.256	0
1	6914	19648.05	0
1	6950	19753.76	0
1	6961	19783.88	1
1	7060	19999.79	0
1	7128	20201.905	0
1	7149	20291.699	0
1	7221	20481.376	1
1	7224	20491.212	0
1	7284	20696.664	1
1	7294	20775.593	0
1	7439	21217.201	1
1	7474	21307.849	0
1	7502	21427.521	1
1	7535	21513.17	0
1	7599	21687.152	0
1	7657	21982.092	0
1	7689	22069.427	0
1	7740	22291.308	0
1	7752	22309.153	1
1	7790	22366.454	0
1	7817	22443.942	1
1	7857	22633.882	0
1	7868	22660.103	1
1	8073	23170.349	2
1	8142	23318.291	1
1	8165	23361.13	0
1	8226	23485.164	0
1	8279	23686.063	0
1	8293	23737.206	0
1	8317	23821.316	0
1	8380	24021.491	0
1	8545	24631.877	0
1	8607	24782.856	0
1	8665	24894.834	0
1	8746	25127.059	0
1	8780	25202.705	0
1	8850	25376.737	0
1	8890	25534.125	0
1	8914	25586.739	0
1	8994	25839.164	0
1	9130	26294.055	0
1	9223	26675.177	0
1	9262	26771.788	1
1	9269	26805.055	0
1	9316	26955.104	1
1	9329	26999.242	0
1	9374	27149.662	0
1	9419	27214.674	0
1	9425	27232.755	1
1	9510	27547.614	0
1	9565	27728.534	0
1	9615	27926.234	0
1	9644	28027.773	0
1	9657	28070.927	0
1	9678	28105.052	0
1	9686	28144.537	1
1	9694	28170.93	0
1	9730	28253.392	0
1	9751	28295.631	1
1	9862	28622.06	0
1	9881	28683.462	1
1	9896	28726.665	0
1	9930	28794.988	0
1	10010	28995.561	1
1	10026	29039.686	0
1	10058	29105.221	0
1	10098	29187.681	0
1	10149	29350.434	0
1	10205	29474.386	0
1	10257	29595.516	1
1	10405	30148.428	0
1	10409	30152.226	1
1	10468	30275.392	0
1	10472	30304.591	1
1	10519	30421.129	0
1	10530	30455.27	1
1	10532	30455.737	0
1	10556	30508.154	0
1	10584	30568.34	0
1	10631	30677.593	0
1	10682	30827.203	0
1	10706	30872.581	0
1	10803	31107.365	0
1	10818	31163.251	1
1	10858	31306.099	0
1	10875	31367.706	1
1	10891	31410.754	0
1	10957	31576.135	0
1	11028	31779.334	0
1	11126	32045.493	0
1	11163	32180.481	0
1	11169	32196.719	1
1	11197	32264.524	0
1	11319	32650.036	0
1	11383	32868.15	0
1	11399	32946.925	0
1	11437	33089.599	0
1	11440	33089.653	1
1	11487	33186.523	2
1	11530	33322.713	1
1	11607	33599.14	0
1	11615	33612.134	1
1	11628	33660.679	0
1	11692	33777.219	1
1	11771	33992.215	0
1	11775	33996.439	1
1	11840	34092.338	0
1	11856	34125.636	0
1	11947	34411.026	0
1	12014	34592.896	0
1	12034	34657.553	0
1	12110	34871.574	0
1	12155	34961.727	1
1	12220	35149.199	0
1	12243	35207.62	0
1	12250	35226.027	1
1	12268	35302.658	0
1	12274	35315.587	1
1	12301	35368.742	0
1	12305	35374.479	1
1	12338	35455.146	0
1	12347	35473.684	1
1	12359	35500.409	0
1	12368	35518.079	1
1	12400	35595.646	0
1	12422	35667.901	0
1	12432	35685.953	1
1	12545	35998.968	0
1	12556	36038.953	1
1	12595	36106.675	0
1	12611	36133.28	1
1	12645	36219.538	0
1	12653	36227.515	1
1	12685	36353.833	0
1	12699	36397.961	1
1	12725	36458.791	0
1	12729	36459.999	1
1	12847	36726.799	2
1	13071	37311.424	1
1	13169	37608.916	0
1	13184	37640.792	1
1	13235	37749.021	0
1	13293	37900.829	1
1	13396	38210.395	0
1	13408	38238.235	1
1	13433	38316.185	0
1	13441	38340.179	1
1	13526	38554.786	0
1	13560	38638.583	0
1	13599	38682.72	0
1	13640	38740.353	0
1	13676	38842.881	1
1	13716	38999.783	0
1	13773	39134.902	0
1	13788	39152.037	1
1	13799	39190.4	0
1	13874	39332.166	1
1	13956	39609.424	0
1	14073	39918.701	0
1	14126	40121.15	0
1	14158	40216.304	0
1	14257	40433.42	0
1	14323	40672.616	0
1	14382	40886.222	0
1	14415	40993.182	0
1	14502	41292.053	1
1	14521	41448.837	0
1	14574	41602.392	0
1	14601	41666.295	1
1	14630	41773.539	0
1	14660	41877.849	0
1	14731	42141.539	0
1	14791	42262.068	1
1	14799	42290.772	0
1	14835	42408.494	0
1	14864	42460.363	0
1	14877	42500.562	1
1	14899	42550.851	0
1	14903	42553.972	1
1	14979	42782.586	0
1	15032	42935.511	1
1	15034	42937.814	0
1	15085	43021.939	1
2	284	903.984	0
2	322	1008.6	0
2	418	1320.016	0
2	474	1661.783	0
2	506	1777.52	0
2	567	1921.397	0
2	651	2138.37	0
2	720	2312.176	0
2	767	2451.442	0
2	809	2551.372	59.543
2	841	2615.095	57.852
2	1007	3047.786	49.513
2	1057	3307.31	249.798
2	1142	3587.573	239.659
2	1234	3835.199	209.125
2	1320	4093.204	221.745
2	1369	4205.53	77.458
2	1423	4356.837	151.084
2	1474	4483.073	247.917
2	1582	4778.104	343.556
2	1613	4861.55	393.329
2	1657	4941.95	121.96
2	1707	5089.562	125.377
2	1773	5283.096	186.671
2	1811	5353.351	25.592
2	1952	5792.34	351.625
2	2059	6036.084	489.618
2	2357	6887.402	673.977
2	2380	6941.849	689.606
2	2412	7036.477	92.291
2	2437	7073.332	10.397
2	2507	7273.148	185.135
2	2517	7341.971	0
2	2534	7385.91	3.907
2	2675	7694.926	231.429
2	2756	7956.246	187.788
2	2812	8065.571	88.284
2	2881	8268.924	205.935
2	2915	8342.991	0
2	2940	8386.659	0
2	2980	8518.497	0
2	3071	8709.244	61.277
2	3177	8962.135	145.888
2	3231	9225.266	0
2	3250	9288.772	0
2	3279	9406.442	0
2	3324	9564.43	0
2	3397	9897.26	0
2	3472	10062.333	141.279
2	3517	10144.02	0
2	3566	10269.185	0
2	3700	10567.902	183.705
2	3713	10617.365	35.943
2	3775	10801.562	174.175
2	3791	10848.271	155.129
2	3817	10898.964	29.364
2	3935	11137.315	223.709
2	3953	11189.688	0
2	4005	11308.019	0
2	4322	12268.484	416.351
2	4349	12343.463	169.351
2	4419	12566.468	288.048
2	4464	12701.082	198.16
2	4516	12824.971	252.33
2	4591	13015.37	262.221
2	4661	13196.106	356.147
2	4695	13257.04	239.04
2	4710	13302.24	91.993
2	4898	13916.646	611.689
2	4914	13946.723	634.16
2	4935	14011.638	67.399
2	5015	14222.704	264.996
2	5058	14386.598	129.93
2	5103	14464.937	72.715
2	5214	14766.563	341.637
2	5236	14826.082	35.207
2	5325	15006.814	145.16
2	5362	15113.236	11.753
2	5443	15275.964	0
2	5473	15409.484	16.881
2	5527	15594.813	0
2	5625	15908.073	266.821
2	5708	16166.201	184.526
2	5750	16292.139	65.678
2	5925	16761.466	376.377
2	6016	17044.453	29.69
2	6067	17206.092	147.036
2	6261	17872.862	104.567
2	6288	17920.829	39.598
2	6302	17978.149	51.119
2	6389	18222.384	234.706
2	6463	18426.78	325.378
2	6618	18963.731	668.215
2	6705	19180.642	206.463
2	6757	19295.662	101.747
2	6989	19874.924	472.473
2	7042	19955.61	42.787
2	7078	20087.826	0
2	7180	20391.196	170.997
2	7260	20616.99	52.815
2	7274	20676.956	0
2	7298	20781.517	0
2	7332	20893.946	0
2	7372	20985.045	0
2	7411	21138.128	32.979
2	7452	21236.684	0
2	7510	21454.284	137.289
2	7584	21636.499	0
2	7615	21763.297	0
2	7645	21941.854	56.326
2	7660	21982.319	33.092
2	7727	22206.043	0
2	7780	22356.467	30.856
2	7833	22532.662	47.189
2	7882	22705.358	140.971
2	7894	22740.811	4.68
2	7924	22827.548	0
2	7972	22906.801	0
2	7985	22953.457	0
2	8027	23034.894	63.06
2	8122	23271.591	182.595
2	8136	23316.386	97.112
2	8171	23370.04	52.862
2	8209	23439.723	114.287
2	8264	23610.269	0
2	8499	24465.073	0
2	8555	24672.509	0
2	8589	24723.01	0
2	8706	25057.555	86.408
2	8805	25270.39	54.22
2	8837	25332.883	0
2	8868	25424.027	0
2	8957	25702.74	0
2	8991	25832.247	0
2	9149	26378.5	0
2	9206	26595.484	0
2	9378	27156.583	251.379
2	9433	27279.734	0
2	9462	27363.529	0
2	9539	27627.743	0
2	9562	27716.406	0
2	9585	27828.693	0
2	9709	28206.651	194.677
2	9816	28492.35	228.719
2	9854	28610.231	164.643
2	9878	28683.083	0
2	9918	28769.952	0
2	10054	29103.208	220.011
2	10117	29228.945	0
2	10243	29548.118	0
2	10322	29842.135	251.017
2	10431	30214.851	107.786
2	10618	30634.536	412.751
2	10667	30797.422	0
2	10709	30874.321	0
2	10774	31051.01	0
2	10835	31198.413	12.455
2	10855	31299.971	0
2	10884	31408.205	0
2	10953	31574.565	128.999
2	10985	31660.112	0
2	11086	31955.478	0
2	11229	32371.017	242.177
2	11366	32789.712	0
2	11375	32823.157	19.574
2	11443	33096.33	192.385
2	11660	33715.89	531.285
2	11753	33944.622	299.204
2	11789	34022.631	52.937
2	11892	34217.397	0
2	12098	34837.935	0
2	12117	34889.857	0
2	12147	34947.926	0
2	12217	35148.685	0
2	12350	35485.894	298.845
2	12370	35522.185	86.074
2	12434	35693.189	169.288
2	12447	35726.102	20.638
2	12505	35875.379	0
2	12656	36244.153	202.258
2	12720	36441.678	192.75
2	12765	36543.986	233.249
2	12960	37061.845	483.057
2	12990	37124.185	451.454
2	13033	37247.221	66.837
2	13059	37289.697	19.38
2	13099	37420.081	0
2	13197	37670.072	204.455
2	13288	37877.912	0
2	13345	38050.518	169.978
2	13366	38115.599	46.607
2	13376	38160.456	6.34
2	13405	38223.398	0
2	13437	38328.326	0
2	13510	38519.609	23.826
2	13534	38563.134	34.919
2	13574	38653.905	75.583
2	13668	38841.952	92.717
2	13699	38953.296	78.862
2	13836	39268.906	302.52
2	13960	39612.29	0
2	14011	39698.414	15.818
2	14054	39875.283	0
2	14119	40065.886	0
2	14209	40331.114	46.249
2	14285	40538.328	0
2	14309	40620.2	0
2	14392	40910.946	0
2	14400	40972.982	0
2	14469	41202.395	0
2	14496	41274.55	0
2	14531	41467.509	0
2	14564	41571.346	0
2	14610	41685.807	0
2	14831	42398.341	208.198
2	14883	42538.459	13.454
2	15054	42957.493	341.63
2	15111	43104.705	92.159
3	284	903.984	0
3	322	1008.6	0
3	418	1320.016	0
3	474	1661.783	0
3	506	1777.52	0
3	567	1921.397	0
3	651	2138.37	0
3	720	2312.176	0
3	767	2451.442	0
3	788	2491.829	1
3	809	2551.372	0
3	814	2557.243	1
3	841	2615.095	0
3	987	2998.273	1
3	1007	3047.786	0
3	1011	3057.512	1
3	1057	3307.31	0
3	1074	3347.914	1
3	1142	3587.573	0
3	1157	3626.074	1
3	1234	3835.199	0
3	1249	3871.459	1
3	1320	4093.204	0
3	1337	4128.072	1
3	1369	4205.53	0
3	1373	4205.753	1
3	1381	4235.156	2
3	1423	4356.837	1
3	1446	4434.548	2
3	1460	4468.221	3
3	1474	4483.073	2
3	1582	4778.104	1
3	1599	4819.99	2
3	1613	4861.55	1
3	1657	4941.95	0
3	1665	4964.185	1
3	1707	5089.562	0
3	1711	5096.425	1
3	1773	5283.096	0
3	1799	5327.759	1
3	1811	5353.351	0
3	1851	5440.715	1
3	1879	5546.466	2
3	1952	5792.34	1
3	2059	6036.084	0
3	2117	6213.425	1
3	2133	6252.243	2
3	2357	6887.402	1
3	2380	6941.849	0
3	2384	6944.186	1
3	2412	7036.477	0
3	2421	7062.935	1
3	2437	7073.332	0
3	2445	7088.013	1
3	2507	7273.148	0
3	2517	7341.971	0
3	2532	7382.003	1
3	2534	7385.91	0
3	2577	7463.497	1
3	2675	7694.926	0
3	2698	7768.458	1
3	2756	7956.246	0
3	2764	7977.287	1
3	2806	8062.989	2
3	2812	8065.571	1
3	2881	8268.924	0
3	2915	8342.991	0
3	2940	8386.659	0
3	2980	8518.497	0
3	3044	8647.967	1
3	3071	8709.244	0
3	3133	8816.247	1
3	3177	8962.135	0
3	3231	9225.266	0
3	3250	9288.772	0
3	3279	9406.442	0
3	3324	9564.43	0
3	3397	9897.26	0
3	3408	9921.054	1
3	3472	10062.333	0
3	3517	10144.02	0
3	3566	10269.185	0
3	3624	10384.197	1
3	3700	10567.902	0
3	3704	10581.422	1
3	3713	10617.365	0
3	3717	10627.387	1
3	3737	10693.142	2
3	3775	10801.562	1
3	3791	10848.271	0
3	3805	10869.6	1
3	3817	10898.964	0
3	3827	10913.606	1
3	3935	11137.315	0
3	3953	11189.688	0
3	4005	11308.019	0
3	4175	11852.133	1
3	4288	12174.112	2
3	4322	12268.484	1
3	4326	12278.42	2
3	4349	12343.463	1
3	4396	12502.922	2
3	4419	12566.468	1
3	4431	12572.641	2
3	4464	12701.082	1
3	4481	12753.149	2
3	4516	12824.971	1
3	4526	12839.959	2
3	4591	13015.37	1
3	4595	13018	2
3	4661	13196.106	1
3	4672	13210.247	2
3	4695	13257.04	1
3	4710	13302.24	0
3	4714	13304.957	1
3	4720	13312.563	2
3	4898	13916.646	1
3	4911	13944.239	2
3	4914	13946.723	1
3	4919	13957.708	2
3	4935	14011.638	1
3	5015	14222.704	0
3	5025	14256.668	1
3	5058	14386.598	0
3	5066	14392.222	1
3	5087	14424.926	2
3	5103	14464.937	1
3	5214	14766.563	0
3	5224	14790.875	1
3	5236	14826.082	0
3	5255	14861.654	1
3	5325	15006.814	0
3	5356	15101.483	1
3	5362	15113.236	0
3	5443	15275.964	0
3	5464	15392.603	1
3	5473	15409.484	0
3	5527	15594.813	0
3	5542	15641.252	1
3	5625	15908.073	0
3	5647	15981.675	1
3	5708	16166.201	0
3	5732	16226.461	1
3	5750	16292.139	0
3	5792	16385.089	1
3	5925	16761.466	0
3	6001	17014.763	1
3	6016	17044.453	0
3	6022	17059.056	1
3	6067	17206.092	0
3	6234	17768.295	1
3	6261	17872.862	0
3	6269	17881.231	1
3	6288	17920.829	0
3	6296	17927.03	1
3	6302	17978.149	0
3	6306	17987.678	1
3	6339	18101.402	2
3	6389	18222.384	1
3	6422	18295.516	2
3	6463	18426.78	1
3	6618	18963.731	0
3	6622	18974.179	1
3	6705	19180.642	0
3	6711	19193.915	1
3	6757	19295.662	0
3	6811	19402.451	1
3	6989	19874.924	0
3	7013	19912.823	1
3	7042	19955.61	0
3	7078	20087.826	0
3	7135	20220.199	1
3	7180	20391.196	0
3	7246	20564.175	1
3	7260	20616.99	0
3	7274	20676.956	0
3	7298	20781.517	0
3	7332	20893.946	0
3	7372	20985.045	0
3	7405	21105.149	1
3	7411	21138.128	0
3	7452	21236.684	0
3	7479	21316.995	1
3	7510	21454.284	0
3	7584	21636.499	0
3	7615	21763.297	0
3	7640	21885.528	1
3	7645	21941.854	0
3	7649	21949.227	1
3	7660	21982.319	0
3	7727	22206.043	0
3	7762	22325.611	1
3	7780	22356.467	0
3	7828	22485.473	1
3	7833	22532.662	0
3	7840	22564.387	1
3	7882	22705.358	0
3	7888	22736.131	1
3	7894	22740.811	0
3	7924	22827.548	0
3	7972	22906.801	0
3	7985	22953.457	0
3	7995	22971.834	1
3	8027	23034.894	0
3	8039	23088.996	1
3	8092	23219.274	2
3	8122	23271.591	1
3	8136	23316.386	0
3	8140	23317.178	1
3	8146	23325.436	2
3	8171	23370.04	1
3	8209	23439.723	0
3	8264	23610.269	0
3	8499	24465.073	0
3	8555	24672.509	0
3	8589	24723.01	0
3	8684	24971.147	1
3	8706	25057.555	0
3	8785	25216.17	1
3	8805	25270.39	0
3	8837	25332.883	0
3	8868	25424.027	0
3	8957	25702.74	0
3	8991	25832.247	0
3	9149	26378.5	0
3	9206	26595.484	0
3	9311	26905.204	1
3	9378	27156.583	0
3	9433	27279.734	0
3	9462	27363.529	0
3	9539	27627.743	0
3	9562	27716.406	0
3	9585	27828.693	0
3	9635	28011.974	1
3	9709	28206.651	0
3	9739	28263.631	1
3	9808	28445.588	2
3	9816	28492.35	1
3	9854	28610.231	0
3	9878	28683.083	0
3	9918	28769.952	0
3	9966	28883.197	1
3	10054	29103.208	0
3	10117	29228.945	0
3	10243	29548.118	0
3	10255	29591.118	1
3	10322	29842.135	0
3	10400	30107.065	1
3	10431	30214.851	0
3	10437	30221.785	1
3	10618	30634.536	0
3	10667	30797.422	0
3	10709	30874.321	0
3	10774	31051.01	0
3	10830	31185.958	1
3	10835	31198.413	0
3	10855	31299.971	0
3	10884	31408.205	0
3	10908	31445.566	1
3	10953	31574.565	0
3	10985	31660.112	0
3	11086	31955.478	0
3	11154	32128.84	1
3	11229	32371.017	0
3	11366	32789.712	0
3	11369	32803.583	1
3	11375	32823.157	0
3	11390	32903.945	1
3	11443	33096.33	0
3	11483	33184.605	1
3	11625	33645.418	2
3	11660	33715.89	1
3	11753	33944.622	0
3	11767	33969.694	1
3	11789	34022.631	0
3	11892	34217.397	0
3	12098	34837.935	0
3	12117	34889.857	0
3	12147	34947.926	0
3	12217	35148.685	0
3	12231	35187.049	1
3	12334	35436.111	2
3	12350	35485.894	1
3	12370	35522.185	0
3	12374	35523.901	1
3	12434	35693.189	0
3	12444	35705.464	1
3	12447	35726.102	0
3	12505	35875.379	0
3	12558	36041.895	1
3	12656	36244.153	0
3	12662	36248.928	1
3	12671	36310.737	2
3	12720	36441.678	1
3	12765	36543.986	0
3	12782	36578.788	1
3	12818	36672.731	2
3	12960	37061.845	1
3	12990	37124.185	0
3	13012	37180.384	1
3	13033	37247.221	0
3	13050	37270.317	1
3	13059	37289.697	0
3	13099	37420.081	0
3	13126	37465.617	1
3	13197	37670.072	0
3	13288	37877.912	0
3	13291	37880.54	1
3	13345	38050.518	0
3	13355	38068.992	1
3	13366	38115.599	0
3	13374	38154.116	1
3	13376	38160.456	0
3	13405	38223.398	0
3	13437	38328.326	0
3	13498	38495.783	1
3	13510	38519.609	0
3	13514	38528.215	1
3	13534	38563.134	0
3	13539	38578.322	1
3	13574	38653.905	0
3	13646	38749.235	1
3	13668	38841.952	0
3	13683	38874.434	1
3	13699	38953.296	0
3	13703	38966.386	1
3	13836	39268.906	0
3	13960	39612.29	0
3	14003	39682.596	1
3	14011	39698.414	0
3	14054	39875.283	0
3	14119	40065.886	0
3	14188	40284.865	1
3	14209	40331.114	0
3	14285	40538.328	0
3	14309	40620.2	0
3	14392	40910.946	0
3	14400	40972.982	0
3	14469	41202.395	0
3	14496	41274.55	0
3	14531	41467.509	0
3	14564	41571.346	0
3	14610	41685.807	0
3	14755	42190.143	1
3	14831	42398.341	0
3	14881	42525.005	1
3	14883	42538.459	0
3	14929	42615.863	1
3	15054	42957.493	0
3	15076	43012.546	1
3	15111	43104.705	0
4	230	758.347	0
4	353	1094.22	49.29
4	605	2022.117	866.262
4	640	2088.293	0
4	670	2179.399	0
4	701	2269.948	0
4	801	2525.606	178.15
4	1146	3599.392	1048.604
4	1187	3712.42	108.983
4	1346	4162.237	449.473
4	1427	4384.412	601.298
4	1486	4508.222	310.718
4	1563	4741.25	311.242
4	1717	5097.946	587.778
4	1743	5159.002	340.725
4	1789	5315.284	0
4	1835	5398.209	0
4	1935	5750.017	248.404
4	1978	5863.541	39.156
4	2052	6018.967	129.856
4	2138	6272.033	132.13
4	2182	6407.451	111.504
4	2333	6813.02	466.993
4	2366	6899.566	431.576
4	2397	7000.629	76.803
4	2416	7038.985	38.26
4	2498	7253.742	83.924
4	2538	7396.372	191.47
4	2579	7470.96	36.643
4	2610	7540.784	58.659
4	2660	7663.977	30.081
4	2725	7832.637	113.842
4	2885	8271.105	430.268
4	2963	8468.501	0
4	3059	8683.551	209.729
4	3097	8755.657	0
4	3174	8958.516	0
4	3329	9574.474	7.56
4	3367	9678.571	0
4	3422	9982.03	21.484
4	3463	10052.147	52.161
4	3522	10172.197	0
4	3556	10262.87	0
4	3610	10353.759	0
4	3658	10465.979	27.957
4	3727	10678.29	140.392
4	3749	10737.055	51.501
4	3813	10897.231	204.723
4	3857	10967.139	61.976
4	3875	11003.083	18.327