version 2
run General-0-20220609-19:22:30-1820
attr configname General
attr datetime 20220609-19:22:30
attr experiment General
attr inifile omnetpp.ini
attr iterationvars $0=123
attr iterationvarsf 123-
attr measurement $0=123
attr network PolicyB
attr processid 1820
attr repetition 0
attr replication #0
attr resultdir results
attr runnumber 0
attr seedset 123

vector 0 PolicyB.queue2 "time spent on the queue" ETV
attr interpolationmode none
vector 1 PolicyB.queue2 "queue size after modification" ETV
attr interpolationmode none
vector 2 PolicyB.queue3 "time spent on the queue" ETV
attr interpolationmode none
vector 3 PolicyB.queue3 "queue size after modification" ETV
attr interpolationmode none
vector 4 PolicyB.queue1 "time spent on the queue" ETV
attr interpolationmode none
vector 5 PolicyB.queue1 "queue size after modification" ETV
attr interpolationmode none
vector 6 PolicyB.queue3 "processing time with client order" ETV
attr interpolationmode none
vector 7 PolicyB.queue2 "processing time with client order" ETV
attr interpolationmode none
vector 8 PolicyB.queue1 "processing time with client order" ETV
attr interpolationmode none
vector 9 PolicyB.queue0 "time spent on the queue" ETV
attr interpolationmode none
vector 10 PolicyB.queue0 "queue size after modification" ETV
attr interpolationmode none
vector 11 PolicyB.queue7 "time spent on the queue" ETV
attr interpolationmode none
vector 12 PolicyB.queue7 "queue size after modification" ETV
attr interpolationmode none
vector 13 PolicyB.queue4 "time spent on the queue" ETV
attr interpolationmode none
vector 14 PolicyB.queue4 "queue size after modification" ETV
attr interpolationmode none
vector 15 PolicyB.queue8 "time spent on the queue" ETV
attr interpolationmode none
vector 16 PolicyB.queue8 "queue size after modification" ETV
attr interpolationmode none
vector 17 PolicyB.queue6 "time spent on the queue" ETV
attr interpolationmode none
vector 18 PolicyB.queue6 "queue size after modification" ETV
attr interpolationmode none
vector 19 PolicyB.queue0 "processing time with client order" ETV
attr interpolationmode none
vector 20 PolicyB.queue5 "time spent on the queue" ETV
attr interpolationmode none
vector 21 PolicyB.queue5 "queue size after modification" ETV
attr interpolationmode none
vector 22 PolicyB.queue9 "time spent on the queue" ETV
attr interpolationmode none
vector 23 PolicyB.queue9 "queue size after modification" ETV
attr interpolationmode none
vector 24 PolicyB.queue4 "processing time with client order" ETV
attr interpolationmode none
vector 25 PolicyB.queue7 "processing time with client order" ETV
attr interpolationmode none
vector 26 PolicyB.queue8 "processing time with client order" ETV
attr interpolationmode none
vector 27 PolicyB.queue6 "processing time with client order" ETV
attr interpolationmode none
vector 28 PolicyB.queue5 "processing time with client order" ETV
attr interpolationmode none
vector 29 PolicyB.queue9 "processing time with client order" ETV
attr interpolationmode none
0	2	0	0
0	20	300.582	0
0	75	705.352	0
0	141	981.905	0
0	228	1549.127	0
0	271	1818.009	0
0	321	2339.803	0
0	375	2737.551	0
0	448	3416.764	0
0	487	3826.426	0
0	536	4224.823	0
0	576	4578.079	0
0	688	5501.234	0
0	718	5818.966	0
0	854	6680.014	0
0	921	7139.437	0
0	985	7937.072	0
0	1068	8597.066	0
0	1171	9497.307	0
0	1232	10104.982	0
0	1316	10593.593	0
0	1379	11025.823	0
0	1438	11411.899	0
0	1531	12817.249	0
0	1589	13428.055	0
0	1653	14181.635	0
0	1701	14537.07	0
0	1820	15677.77	0
0	1901	16433.581	0
0	1964	16764.178	0
0	2017	17175.62	0
0	2070	17531.058	0
0	2260	19313.925	0
0	2303	19745.11	0
0	2426	20925.796	0
0	2519	21623.983	0
0	2665	22769.5	0
0	2729	23745.101	0
0	2764	24202.471	0
0	2799	24755.054	0
0	2847	25191.03	0
0	2902	25560.83	0
0	2990	26165.332	0
0	3032	26434.234	0
0	3098	27272.802	0
0	3173	27861.104	0
0	3225	28130.349	0
0	3288	28387.095	0
0	3332	28628.602	240.834
0	3445	29278.239	0
0	3574	30800.202	0
0	3685	31751.598	0
0	3737	32525.639	0
0	3765	32892.944	0
0	3813	33334.751	0
0	3873	33631.075	0
0	3940	34220.054	0
0	3975	34758.093	0
0	4043	35423.003	0
0	4104	35716.028	0
0	4195	36385.571	0
0	4292	37177.244	0
0	4338	37476.433	0
0	4452	38425.823	0
0	4483	38856.313	0
0	4578	39692	0
0	4663	40406.142	0
0	4719	40816.789	0
0	4773	41326.947	0
0	4821	41707.228	0
0	4890	42012.482	0
0	5008	43026.694	0
1	2	0	0
1	20	300.582	0
1	75	705.352	0
1	141	981.905	0
1	228	1549.127	0
1	271	1818.009	0
1	321	2339.803	0
1	375	2737.551	0
1	448	3416.764	0
1	487	3826.426	0
1	536	4224.823	0
1	576	4578.079	0
1	688	5501.234	0
1	718	5818.966	0
1	854	6680.014	0
1	921	7139.437	0
1	985	7937.072	0
1	1068	8597.066	0
1	1171	9497.307	0
1	1232	10104.982	0
1	1316	10593.593	0
1	1379	11025.823	0
1	1438	11411.899	0
1	1531	12817.249	0
1	1589	13428.055	0
1	1653	14181.635	0
1	1701	14537.07	0
1	1820	15677.77	0
1	1901	16433.581	0
1	1964	16764.178	0
1	2017	17175.62	0
1	2070	17531.058	0
1	2260	19313.925	0
1	2303	19745.11	0
1	2426	20925.796	0
1	2519	21623.983	0
1	2665	22769.5	0
1	2729	23745.101	0
1	2764	24202.471	0
1	2799	24755.054	0
1	2847	25191.03	0
1	2902	25560.83	0
1	2990	26165.332	0
1	3032	26434.234	0
1	3098	27272.802	0
1	3173	27861.104	0
1	3225	28130.349	0
1	3288	28387.095	0
1	3291	28387.768	1
1	3332	28628.602	0
1	3445	29278.239	0
1	3574	30800.202	0
1	3685	31751.598	0
1	3737	32525.639	0
1	3765	32892.944	0
1	3813	33334.751	0
1	3873	33631.075	0
1	3940	34220.054	0
1	3975	34758.093	0
1	4043	35423.003	0
1	4104	35716.028	0
1	4195	36385.571	0
1	4292	37177.244	0
1	4338	37476.433	0
1	4452	38425.823	0
1	4483	38856.313	0
1	4578	39692	0
1	4663	40406.142	0
1	4719	40816.789	0
1	4773	41326.947	0
1	4821	41707.228	0
1	4890	42012.482	0
1	5008	43026.694	0
2	5	15.437	0
2	45	497.614	0
2	111	842.883	0
2	186	1241.469	0
2	234	1572.357	0
2	354	2579.703	0
2	396	2837.393	0
2	418	3110.171	0
2	459	3574.284	0
2	610	4818.83	0
2	693	5569.512	0
2	731	5906.46	0
2	847	6651.875	0
2	958	7782.319	0
2	1009	8107.452	0
2	1127	9073.933	0
2	1158	9376.84	0
2	1221	10030.045	0
2	1271	10274.825	0
2	1334	10690.509	0
2	1426	11383.941	0
2	1487	12073.883	0
2	1518	12379.301	0
2	1546	12919.774	0
2	1709	14614.985	0
2	1739	14924.725	0
2	1847	16033.283	0
2	1923	16545.911	0
2	2013	17109.522	0
2	2152	18211.991	0
2	2194	18617.346	0
2	2276	19499.407	0
2	2400	20773.084	0
2	2547	21916.389	0
2	2701	23348.784	0
2	2817	25039.395	0
2	2882	25406.308	0
2	3001	26229.193	0
2	3105	27307.902	0
2	3135	27597.973	0
2	3196	27962.235	0
2	3258	28245.245	2.785
2	3340	28661.389	0
2	3414	29043.863	0
2	3532	30364.383	0
2	3563	30611.195	0
2	3598	30926.85	0
2	3658	31561.574	0
2	3784	33128.076	0
2	3834	33502.475	0
2	3890	33792.848	0
2	3944	34332.208	0
2	4001	35013.511	0
2	4036	35311.506	0
2	4089	35655.159	0
2	4148	35954.009	0
2	4181	36319.841	0
2	4228	36643.59	0
2	4284	37085.781	0
2	4331	37400.749	0
2	4387	37785.407	0
2	4441	38305.143	0
2	4495	38964.956	0
2	4557	39447.044	0
2	4637	40244.311	0
2	4684	40634.118	0
2	4752	41243.166	0
2	4813	41634.971	0
2	4869	41924.382	0
2	4946	42372.437	0
2	5011	43027.622	0
3	5	15.437	0
3	45	497.614	0
3	111	842.883	0
3	186	1241.469	0
3	234	1572.357	0
3	354	2579.703	0
3	396	2837.393	0
3	418	3110.171	0
3	459	3574.284	0
3	610	4818.83	0
3	693	5569.512	0
3	731	5906.46	0
3	847	6651.875	0
3	958	7782.319	0
3	1009	8107.452	0
3	1127	9073.933	0
3	1158	9376.84	0
3	1221	10030.045	0
3	1271	10274.825	0
3	1334	10690.509	0
3	1426	11383.941	0
3	1487	12073.883	0
3	1518	12379.301	0
3	1546	12919.774	0
3	1709	14614.985	0
3	1739	14924.725	0
3	1847	16033.283	0
3	1923	16545.911	0
3	2013	17109.522	0
3	2152	18211.991	0
3	2194	18617.346	0
3	2276	19499.407	0
3	2400	20773.084	0
3	2547	21916.389	0
3	2701	23348.784	0
3	2817	25039.395	0
3	2882	25406.308	0
3	3001	26229.193	0
3	3105	27307.902	0
3	3135	27597.973	0
3	3196	27962.235	0
3	3256	28242.46	1
3	3258	28245.245	0
3	3340	28661.389	0
3	3414	29043.863	0
3	3532	30364.383	0
3	3563	30611.195	0
3	3598	30926.85	0
3	3658	31561.574	0
3	3784	33128.076	0
3	3834	33502.475	0
3	3890	33792.848	0
3	3944	34332.208	0
3	4001	35013.511	0
3	4036	35311.506	0
3	4089	35655.159	0
3	4148	35954.009	0
3	4181	36319.841	0
3	4228	36643.59	0
3	4284	37085.781	0
3	4331	37400.749	0
3	4387	37785.407	0
3	4441	38305.143	0
3	4495	38964.956	0
3	4557	39447.044	0
3	4637	40244.311	0
3	4684	40634.118	0
3	4752	41243.166	0
3	4813	41634.971	0
3	4869	41924.382	0
3	4946	42372.437	0
3	5011	43027.622	0
4	10	63.523	0
4	30	365.146	0
4	107	801.073	0
4	159	1112.248	0
4	231	1550.103	0
4	277	1833.792	0
4	326	2382.988	0
4	423	3188.97	0
4	493	3848.384	0
4	528	4172.39	0
4	553	4433.545	0
4	600	4742.931	0
4	644	5028.814	0
4	681	5479.384	0
4	757	6103.076	0
4	816	6478.04	0
4	872	6798.009	32.251
4	1035	8263.599	0
4	1086	8732.151	0
4	1143	9282.956	0
4	1243	10159.65	0
4	1324	10633.708	0
4	1466	11788.012	0
4	1543	12898.86	0
4	1571	13159.294	0
4	1603	13523.242	0
4	1627	13987.847	0
4	1666	14295.254	0
4	1761	15126.288	0
4	1799	15445.439	0
4	1855	16092.777	0
4	1904	16435.527	0
4	1994	17036.454	0
4	2028	17289.838	0
4	2081	17581.24	0
4	2162	18262.729	0
4	2201	18664.323	0
4	2264	19363.827	0
4	2310	19781.366	0
4	2362	20340.441	0
4	2405	20808.366	0
4	2467	21158.887	0
4	2509	21579.498	0
4	2552	21949.065	0
4	2629	22604.15	0
4	2726	23715.151	0
4	2826	25055.731	0
4	2934	25733.651	0
4	2978	26031.092	0
4	3088	27147.254	0
4	3159	27756.917	0
4	3215	28059.901	0
4	3275	28315.612	0
4	3346	28690.049	0
4	3535	30379.642	0
4	3607	31015.196	0
4	3650	31463.426	0
4	3694	31802.737	0
4	3808	33291.98	0
4	3913	33875.055	0
4	3987	34912.883	0
4	4064	35565.152	0
4	4192	36380.458	0
4	4276	36988.196	0
4	4342	37525.714	0
4	4410	37950.67	0
4	4486	38858.685	0
4	4560	39458.926	0
4	4610	40000.127	0
4	4708	40762.435	0
4	4782	41504.923	0
4	4831	41737.704	0
4	4911	42146.432	0
4	5005	42998.65	0
5	10	63.523	0
5	30	365.146	0
5	107	801.073	0
5	159	1112.248	0
5	231	1550.103	0
5	277	1833.792	0
5	326	2382.988	0
5	423	3188.97	0
5	493	3848.384	0
5	528	4172.39	0
5	553	4433.545	0
5	600	4742.931	0
5	644	5028.814	0
5	681	5479.384	0
5	757	6103.076	0
5	816	6478.04	0
5	868	6765.758	1
5	872	6798.009	0
5	1035	8263.599	0
5	1086	8732.151	0
5	1143	9282.956	0
5	1243	10159.65	0
5	1324	10633.708	0
5	1466	11788.012	0
5	1543	12898.86	0
5	1571	13159.294	0
5	1603	13523.242	0
5	1627	13987.847	0
5	1666	14295.254	0
5	1761	15126.288	0
5	1799	15445.439	0
5	1855	16092.777	0
5	1904	16435.527	0
5	1994	17036.454	0
5	2028	17289.838	0
5	2081	17581.24	0
5	2162	18262.729	0
5	2201	18664.323	0
5	2264	19363.827	0
5	2310	19781.366	0
5	2362	20340.441	0
5	2405	20808.366	0
5	2467	21158.887	0
5	2509	21579.498	0
5	2552	21949.065	0
5	2629	22604.15	0
5	2726	23715.151	0
5	2826	25055.731	0
5	2934	25733.651	0
5	2978	26031.092	0
5	3088	27147.254	0
5	3159	27756.917	0
5	3215	28059.901	0
5	3275	28315.612	0
5	3346	28690.049	0
5	3535	30379.642	0
5	3607	31015.196	0
5	3650	31463.426	0
5	3694	31802.737	0
5	3808	33291.98	0
5	3913	33875.055	0
5	3987	34912.883	0
5	4064	35565.152	0
5	4192	36380.458	0
5	4276	36988.196	0
5	4342	37525.714	0
5	4410	37950.67	0
5	4486	38858.685	0
5	4560	39458.926	0
5	4610	40000.127	0
5	4708	40762.435	0
5	4782	41504.923	0
5	4831	41737.704	0
5	4911	42146.432	0
5	5005	42998.65	0
6	14	261.962	246.525
6	100	779.712	282.098
6	169	1158.426	315.543
6	221	1507.412	265.943
6	285	1872.881	300.524
6	392	2825.138	245.435
6	415	3105.934	268.541
6	438	3368.719	258.548
6	490	3842.898	268.614
6	653	5137.875	319.045
6	721	5827.946	258.434
6	768	6169.145	262.685
6	889	6906.622	254.747
6	1000	8072.346	290.027
6	1043	8361.702	254.25
6	1151	9320.15	246.217
6	1194	9664.257	287.417
6	1268	10265.283	235.238
6	1312	10560.094	285.269
6	1366	10944.84	254.331
6	1456	11628.3	244.359
6	1509	12355.848	281.965
6	1525	12705.655	326.354
6	1579	13197.93	278.156
6	1735	14909.331	294.346
6	1776	15214.589	289.864
6	1881	16318.942	285.659
6	1971	16823.022	277.111
6	2055	17394.249	284.727
6	2178	18486.384	274.393
6	2228	18916.464	299.118
6	2306	19753.507	254.1
6	2447	21030.505	257.421
6	2591	22189.189	272.8
6	2719	23636.702	287.918
6	2855	25296.246	256.851
6	2929	25683.933	277.625
6	3042	26501.083	271.89
6	3125	27555.554	247.652
6	3176	27889.275	291.302
6	3258	28245.245	283.01
6	3320	28539.618	294.373
6	3399	28958.111	296.722
6	3453	29314.325	270.462
6	3559	30600.765	236.382
6	3588	30875.951	264.756
6	3629	31190.028	263.178
6	3698	31857.145	295.571
6	3824	33409.969	281.893
6	3887	33782.546	280.071
6	3924	34048.373	255.525
6	3962	34589.162	256.954
6	4032	35284.896	271.385
6	4067	35581.534	270.028
6	4145	35947.367	292.208
6	4175	36234.426	280.417
6	4216	36606.628	286.787
6	4263	36903.863	260.273
6	4325	37361.681	275.9
6	4377	37669.384	268.635
6	4421	38065.23	279.823
6	4463	38552.31	247.167
6	4530	39228.609	263.653
6	4582	39722.831	275.787
6	4667	40454.941	210.63
6	4730	40889.106	254.988
6	4785	41517.808	274.642
6	4857	41885.82	250.849
6	4917	42165.705	241.323
6	4973	42639.089	266.652
7	17	262.817	262.817
7	54	560.533	259.951
7	133	960.977	255.625
7	183	1240.123	258.218
7	268	1816.427	267.3
7	301	2066.039	248.03
7	359	2634.963	295.16
7	403	2978.971	241.42
7	478	3679.027	262.263
7	522	4115.887	289.461
7	564	4494.86	270.037
7	607	4817.061	238.982
7	715	5780.999	279.765
7	753	6078.538	259.572
7	898	6936.195	256.181
7	940	7357.357	217.92
7	1026	8225.603	288.531
7	1100	8891.057	293.991
7	1200	9801.381	304.074
7	1293	10421.982	317
7	1360	10878.804	285.211
7	1415	11311.498	285.675
7	1459	11658.518	246.619
7	1562	13086.372	269.123
7	1610	13701.929	273.874
7	1691	14465.381	283.746
7	1729	14807.193	270.123
7	1837	15908.969	231.199
7	1958	16714.997	281.416
7	1997	17037.565	273.387
7	2063	17425.287	249.667
7	2112	17822.157	291.099
7	2290	19600.036	286.111
7	2331	20008.239	263.129
7	2478	21201.091	275.295
7	2535	21854.854	230.871
7	2691	23080.816	311.316
7	2748	24015.715	270.614
7	2785	24444.852	242.381
7	2823	25045.171	290.117
7	2888	25429.765	238.735
7	2949	25843.001	282.171
7	3029	26430.86	265.528
7	3055	26710.2	275.966
7	3122	27512.713	239.911
7	3222	28117.333	256.229
7	3284	28380.96	250.611
7	3332	28628.602	241.507
7	3389	28911.186	282.584
7	3468	29513.524	235.285
7	3614	31057.919	257.717
7	3717	32064.622	313.024
7	3756	32828.138	302.499
7	3795	33189.822	296.878
7	3870	33621.78	287.029
7	3921	33909.273	278.198
7	3955	34516.983	296.929
7	3998	34999.463	241.37
7	4101	35711.727	288.724
7	4153	35986.255	270.227
7	4225	36630.865	245.294
7	4335	37473.593	296.349
7	4383	37751.182	274.749
7	4472	38715.809	289.986
7	4521	39151.893	295.58
7	4607	39960.888	268.888
7	4697	40662.392	256.25
7	4746	41069.988	253.199
7	4799	41583.485	256.538
7	4887	42010.331	303.103
7	4932	42250.27	237.788
8	23	323.891	260.368
8	64	652.477	287.331
8	153	1052.727	251.654
8	200	1405.23	292.982
8	274	1821.307	271.204
8	304	2102.447	268.655
8	368	2665.66	282.672
8	453	3482.157	293.187
8	519	4110.568	262.184
8	550	4428.58	256.19
8	593	4710.728	277.183
8	638	4999.694	256.763
8	668	5261.12	232.306
8	712	5773.871	294.487
8	796	6315.647	212.571
8	872	6798.009	319.969
8	918	7105.315	307.306
8	1061	8547.209	283.61
8	1120	8982.801	250.65
8	1181	9542.979	260.023
8	1289	10411.1	251.45
8	1363	10915.174	281.466
8	1484	12018.532	230.52
8	1565	13147.7	248.84
8	1598	13447.012	287.718
8	1619	13797.196	273.954
8	1657	14225.704	237.857
8	1706	14587.967	292.713
8	1796	15396.663	270.375
8	1824	15709.165	263.726
8	1888	16353.517	260.74
8	1961	16728.105	292.578
8	2025	17275.467	239.013
8	2073	17540.528	250.69
8	2121	17843.968	262.728
8	2184	18512.58	249.851
8	2240	18962.369	298.046
8	2294	19610.957	247.13
8	2335	20052.804	271.438
8	2387	20597.682	257.241
8	2455	21110.34	301.974
8	2496	21412.208	253.321
8	2538	21872.164	292.666
8	2588	22185.661	236.596
8	2669	22850.675	246.525
8	2751	24057.707	342.556
8	2858	25311.36	255.629
8	2972	26011.495	277.844
8	3015	26279.131	248.039
8	3118	27437.634	290.38
8	3211	28009.562	252.645
8	3272	28308.31	248.409
8	3324	28553.134	237.522
8	3396	28951.446	261.397
8	3566	30628.56	248.918
8	3639	31300.22	285.024
8	3682	31743.603	280.177
8	3723	32098.604	295.867
8	3863	33570.672	278.692
8	3930	34131.311	256.256
8	4019	35183.711	270.828
8	4118	35816.363	251.211
8	4246	36693.313	312.855
8	4302	37248.665	260.469
8	4390	37800.174	274.46
8	4435	38203.631	252.961
8	4527	39192.232	333.547
8	4585	39735.857	276.931
8	4640	40271.561	271.434
8	4743	41040.355	277.92
8	4827	41725.613	220.69
8	4884	42008.068	270.364
8	4955	42388.964	242.532
9	27	339.925	0
9	61	624.007	0
9	146	1016.359	0
9	197	1386.94	0
9	254	1702.159	0
9	329	2391.405	0
9	371	2685.708	0
9	435	3348.019	0
9	570	4561.317	0
9	627	4922.757	0
9	697	5624.934	0
9	750	6058.003	0
9	799	6319.641	0
9	843	6623.743	0
9	892	6918.017	0
9	966	7844.71	0
9	1012	8107.506	0
9	1050	8469.081	0
9	1110	8937.739	0
9	1167	9437.824	0
9	1240	10152.182	0
9	1353	10833.554	0
9	1408	11274.583	0
9	1498	12129.379	0
9	1535	12832.938	0
9	1623	13870.878	0
9	1732	14885.712	0
9	1813	15556.976	0
9	1866	16224.018	0
9	1943	16630.306	0
9	2048	17376.021	0
9	2156	18255.876	0
9	2190	18543.266	0
9	2286	19573.236	0
9	2422	20906.086	0
9	2568	22048.254	0
9	2624	22460.757	0
9	2681	22963.084	0
9	2712	23602.821	0
9	2744	23950.479	0
9	2767	24208.07	0
9	2861	25317.067	0
9	2985	26043.478	0
9	3024	26372.668	0
9	3163	27800.343	0
9	3231	28151.564	0
9	3300	28417.438	0
9	3361	28740.294	0
9	3437	29223.935	0
9	3481	29722.981	0
9	3552	30576.399	0
9	3713	32023.57	0
9	3751	32781.675	0
9	3790	33151.098	0
9	3840	33518.493	0
9	3947	34332.677	0
9	4022	35223.893	0
9	4084	35638.807	0
9	4136	35906.972	0
9	4238	36655.501	0
9	4287	37090.434	0
9	4345	37547.057	0
9	4536	39245.778	0
9	4614	40086.827	0
9	4670	40465.934	0
9	4792	41557.789	0
9	4863	41915.559	0
9	4949	42373.893	0
10	27	339.925	0
10	61	624.007	0
10	146	1016.359	0
10	197	1386.94	0
10	254	1702.159	0
10	329	2391.405	0
10	371	2685.708	0
10	435	3348.019	0
10	570	4561.317	0
10	627	4922.757	0
10	697	5624.934	0
10	750	6058.003	0
10	799	6319.641	0
10	843	6623.743	0
10	892	6918.017	0
10	966	7844.71	0
10	1012	8107.506	0
10	1050	8469.081	0
10	1110	8937.739	0
10	1167	9437.824	0
10	1240	10152.182	0
10	1353	10833.554	0
10	1408	11274.583	0
10	1498	12129.379	0
10	1535	12832.938	0
10	1623	13870.878	0
10	1732	14885.712	0
10	1813	15556.976	0
10	1866	16224.018	0
10	1943	16630.306	0
10	2048	17376.021	0
10	2156	18255.876	0
10	2190	18543.266	0
10	2286	19573.236	0
10	2422	20906.086	0
10	2568	22048.254	0
10	2624	22460.757	0
10	2681	22963.084	0
10	2712	23602.821	0
10	2744	23950.479	0
10	2767	24208.07	0
10	2861	25317.067	0
10	2985	26043.478	0
10	3024	26372.668	0
10	3163	27800.343	0
10	3231	28151.564	0
10	3300	28417.438	0
10	3361	28740.294	0
10	3437	29223.935	0
10	3481	29722.981	0
10	3552	30576.399	0
10	3713	32023.57	0
10	3751	32781.675	0
10	3790	33151.098	0
10	3840	33518.493	0
10	3947	34332.677	0
10	4022	35223.893	0
10	4084	35638.807	0
10	4136	35906.972	0
10	4238	36655.501	0
10	4287	37090.434	0
10	4345	37547.057	0
10	4536	39245.778	0
10	4614	40086.827	0
10	4670	40465.934	0
10	4792	41557.789	0
10	4863	41915.559	0
10	4949	42373.893	0
11	35	443.495	0
11	96	767.729	0
11	172	1171.339	0
11	213	1449.005	0
11	281	1862.491	0
11	334	2428.403	0
11	383	2801.626	0
11	556	4438.492	0
11	705	5669.752	0
11	760	6110.556	0
11	826	6547.088	0
11	961	7790.257	0
11	1155	9372.329	0
11	1226	10078.152	0
11	1369	10954.728	0
11	1421	11333.912	0
11	1495	12121.78	0
11	1540	12895.662	0
11	1642	14123.403	0
11	1681	14405.959	0
11	1766	15172.112	0
11	1840	15936.44	0
11	1870	16267.572	0
11	1949	16669.021	0
11	2007	17060.996	0
11	2052	17391	0
11	2107	17771.283	0
11	2141	18094.525	0
11	2213	18792.735	0
11	2328	19997.108	0
11	2376	20523.539	0
11	2418	20881.41	0
11	2544	21906.022	0
11	2604	22326.551	0
11	2722	23652.751	0
11	2789	24544.463	0
11	2814	25033.185	0
11	2877	25350.732	0
11	2920	25660.327	0
11	2961	25907.635	0
11	3079	27060.338	0
11	3143	27669.958	0
11	3228	28130.6	0
11	3317	28534.941	0
11	3383	28884.294	0
11	3505	30022.25	0
11	3523	30258.039	0
11	3591	30882.165	0
11	3653	31468.221	0
11	3720	32090.753	0
11	3801	33277.93	0
11	3850	33538.628	0
11	3972	34756.762	0
11	4014	35149.611	0
11	4081	35630.815	0
11	4140	35936.151	234.062
11	4199	36386.179	0
11	4250	36707.961	0
11	4305	37264.565	0
11	4365	37613.7	0
11	4414	38013.301	0
11	4546	39328.457	0
11	4574	39659.149	0
11	4634	40242.027	0
11	4677	40555.341	0
11	4723	40848.268	0
11	4767	41311.76	0
11	4840	41808.605	0
11	4929	42245.498	0
11	4970	42625.381	0
11	5020	43162.122	0
12	35	443.495	0
12	96	767.729	0
12	172	1171.339	0
12	213	1449.005	0
12	281	1862.491	0
12	334	2428.403	0
12	383	2801.626	0
12	556	4438.492	0
12	705	5669.752	0
12	760	6110.556	0
12	826	6547.088	0
12	961	7790.257	0
12	1155	9372.329	0
12	1226	10078.152	0
12	1369	10954.728	0
12	1421	11333.912	0
12	1495	12121.78	0
12	1540	12895.662	0
12	1642	14123.403	0
12	1681	14405.959	0
12	1766	15172.112	0
12	1840	15936.44	0
12	1870	16267.572	0
12	1949	16669.021	0
12	2007	17060.996	0
12	2052	17391	0
12	2107	17771.283	0
12	2141	18094.525	0
12	2213	18792.735	0
12	2328	19997.108	0
12	2376	20523.539	0
12	2418	20881.41	0
12	2544	21906.022	0
12	2604	22326.551	0
12	2722	23652.751	0
12	2789	24544.463	0
12	2814	25033.185	0
12	2877	25350.732	0
12	2920	25660.327	0
12	2961	25907.635	0
12	3079	27060.338	0
12	3143	27669.958	0
12	3228	28130.6	0
12	3317	28534.941	0
12	3383	28884.294	0
12	3505	30022.25	0
12	3523	30258.039	0
12	3591	30882.165	0
12	3653	31468.221	0
12	3720	32090.753	0
12	3801	33277.93	0
12	3850	33538.628	0
12	3972	34756.762	0
12	4014	35149.611	0
12	4081	35630.815	0
12	4099	35702.089	1
12	4140	35936.151	0
12	4199	36386.179	0
12	4250	36707.961	0
12	4305	37264.565	0
12	4365	37613.7	0
12	4414	38013.301	0
12	4546	39328.457	0
12	4574	39659.149	0
12	4634	40242.027	0
12	4677	40555.341	0
12	4723	40848.268	0
12	4767	41311.76	0
12	4840	41808.605	0
12	4929	42245.498	0
12	4970	42625.381	0
12	5020	43162.122	0
13	39	473.949	0
13	84	711.15	0
13	136	969.062	97.188
13	218	1489.916	0
13	310	2184.854	0
13	347	2553.461	0
13	483	3735.306	0
13	546	4382.337	0
13	630	4952.56	0
13	741	5922.788	0
13	788	6265.178	0
13	859	6699.827	0
13	914	7016.242	0
13	969	7845.176	0
13	1064	8553.836	0
13	1146	9290.449	0
13	1184	9574.267	0
13	1210	9900.895	0
13	1255	10219.058	0
13	1346	10765.158	0
13	1418	11327.834	0
13	1462	11723.859	0
13	1490	12090.895	0
13	1568	13159.289	0
13	1616	13779.684	0
13	1645	14132.536	0
13	1698	14528.322	0
13	1742	14938.461	0
13	1779	15234.663	0
13	1830	15813.362	0
13	1898	16431.905	0
13	1991	17028.477	0
13	2041	17348.97	0
13	2094	17636.325	0
13	2148	18147.673	0
13	2341	20083.308	0
13	2373	20512.326	0
13	2412	20868.482	0
13	2464	21147.415	0
13	2502	21464.939	0
13	2582	22173.55	0
13	2654	22707.582	0
13	2754	24120.617	0
13	2833	25109.486	0
13	2885	25413.595	0
13	2942	25784.915	0
13	2993	26195.102	0
13	3069	26995.718	0
13	3128	27563.085	0
13	3183	27922.357	0
13	3279	28354.535	0
13	3353	28714.169	0
13	3434	29205.46	0
13	3502	30001.045	0
13	3623	31170.665	0
13	3676	31722.378	0
13	3853	33539.733	0
13	3990	34937.422	0
13	4074	35609.215	0
13	4168	36184.944	0
13	4219	36622	0
13	4266	36921.758	0
13	4321	37329.874	0
13	4380	37734.113	0
13	4506	39039.625	0
13	4549	39341.808	0
13	4588	39780.867	0
13	4652	40373.272	0
13	4755	41245.591	0
13	4824	41709.019	0
13	4893	42015.652	0
13	4952	42374.57	0
13	4990	42919.343	0
14	39	473.949	0
14	84	711.15	0
14	117	871.874	1
14	136	969.062	0
14	218	1489.916	0
14	310	2184.854	0
14	347	2553.461	0
14	483	3735.306	0
14	546	4382.337	0
14	630	4952.56	0
14	741	5922.788	0
14	788	6265.178	0
14	859	6699.827	0
14	914	7016.242	0
14	969	7845.176	0
14	1064	8553.836	0
14	1146	9290.449	0
14	1184	9574.267	0
14	1210	9900.895	0
14	1255	10219.058	0
14	1346	10765.158	0
14	1418	11327.834	0
14	1462	11723.859	0
14	1490	12090.895	0
14	1568	13159.289	0
14	1616	13779.684	0
14	1645	14132.536	0
14	1698	14528.322	0
14	1742	14938.461	0
14	1779	15234.663	0
14	1830	15813.362	0
14	1898	16431.905	0
14	1991	17028.477	0
14	2041	17348.97	0
14	2094	17636.325	0
14	2148	18147.673	0
14	2341	20083.308	0
14	2373	20512.326	0
14	2412	20868.482	0
14	2464	21147.415	0
14	2502	21464.939	0
14	2582	22173.55	0
14	2654	22707.582	0
14	2754	24120.617	0
14	2833	25109.486	0
14	2885	25413.595	0
14	2942	25784.915	0
14	2993	26195.102	0
14	3069	26995.718	0
14	3128	27563.085	0
14	3183	27922.357	0
14	3279	28354.535	0
14	3353	28714.169	0
14	3434	29205.46	0
14	3502	30001.045	0
14	3623	31170.665	0
14	3676	31722.378	0
14	3853	33539.733	0
14	3990	34937.422	0
14	4074	35609.215	0
14	4168	36184.944	0
14	4219	36622	0
14	4266	36921.758	0
14	4321	37329.874	0
14	4380	37734.113	0
14	4506	39039.625	0
14	4549	39341.808	0
14	4588	39780.867	0
14	4652	40373.272	0
14	4755	41245.591	0
14	4824	41709.019	0
14	4893	42015.652	0
14	4952	42374.57	0
14	4990	42919.343	0
15	42	486.039	0
15	93	745.268	0
15	190	1278.08	0
15	240	1614.817	0
15	313	2187.493	0
15	445	3395.632	0
15	511	4045.327	0
15	590	4690.569	0
15	662	5233.941	0
15	725	5877.852	0
15	774	6202.673	0
15	840	6607.555	0
15	895	6926.163	0
15	951	7613.485	0
15	988	7956.9	0
15	1046	8395.487	0
15	1082	8704.496	0
15	1218	10018.201	0
15	1280	10386.977	0
15	1337	10701.333	0
15	1398	11143.709	0
15	1473	11932.529	0
15	1528	12789.06	0
15	1585	13395.835	0
15	1672	14315.317	0
15	1716	14697.531	0
15	1758	15115.29	0
15	1884	16321.819	0
15	1940	16617.512	0
15	2021	17219.479	0
15	2076	17547.973	0
15	2124	17845.932	0
15	2220	18826.843	0
15	2256	19268.996	0
15	2317	19831.128	0
15	2397	20772.227	0
15	2451	21062.909	0
15	2527	21754.23	0
15	2574	22095.47	0
15	2636	22638.118	0
15	2704	23350.657	0
15	2779	24421.434	0
15	2806	24858.518	0
15	2840	25160.176	0
15	2937	25744.056	0
15	3021	26366.798	0
15	3061	26872.468	0
15	3140	27659.538	0
15	3186	27936.182	0
15	3252	28229.196	0
15	3328	28565.362	0
15	3380	28862.269	0
15	3441	29248.494	0
15	3517	30255.078	0
15	3570	30764.29	0
15	3665	31628.255	0
15	3748	32771.066	0
15	3780	33089.956	0
15	3837	33518.29	0
15	3910	33867.289	0
15	4049	35446.925	0
15	4186	36355.644	0
15	4241	36670.547	0
15	4311	37293.286	0
15	4397	37862.858	0
15	4456	38462.996	0
15	4479	38803.331	0
15	4516	39098.022	0
15	4599	39916.344	0
15	4648	40370.906	0
15	4701	40674.562	0
15	4761	41272.983	0
15	4835	41753.241	0
15	4899	42030.122	0
16	42	486.039	0
16	93	745.268	0
16	190	1278.08	0
16	240	1614.817	0
16	313	2187.493	0
16	445	3395.632	0
16	511	4045.327	0
16	590	4690.569	0
16	662	5233.941	0
16	725	5877.852	0
16	774	6202.673	0
16	840	6607.555	0
16	895	6926.163	0
16	951	7613.485	0
16	988	7956.9	0
16	1046	8395.487	0
16	1082	8704.496	0
16	1218	10018.201	0
16	1280	10386.977	0
16	1337	10701.333	0
16	1398	11143.709	0
16	1473	11932.529	0
16	1528	12789.06	0
16	1585	13395.835	0
16	1672	14315.317	0
16	1716	14697.531	0
16	1758	15115.29	0
16	1884	16321.819	0
16	1940	16617.512	0
16	2021	17219.479	0
16	2076	17547.973	0
16	2124	17845.932	0
16	2220	18826.843	0
16	2256	19268.996	0
16	2317	19831.128	0
16	2397	20772.227	0
16	2451	21062.909	0
16	2527	21754.23	0
16	2574	22095.47	0
16	2636	22638.118	0
16	2704	23350.657	0
16	2779	24421.434	0
16	2806	24858.518	0
16	2840	25160.176	0
16	2937	25744.056	0
16	3021	26366.798	0
16	3061	26872.468	0
16	3140	27659.538	0
16	3186	27936.182	0
16	3252	28229.196	0
16	3328	28565.362	0
16	3380	28862.269	0
16	3441	29248.494	0
16	3517	30255.078	0
16	3570	30764.29	0
16	3665	31628.255	0
16	3748	32771.066	0
16	3780	33089.956	0
16	3837	33518.29	0
16	3910	33867.289	0
16	4049	35446.925	0
16	4186	36355.644	0
16	4241	36670.547	0
16	4311	37293.286	0
16	4397	37862.858	0
16	4456	38462.996	0
16	4479	38803.331	0
16	4516	39098.022	0
16	4599	39916.344	0
16	4648	40370.906	0
16	4701	40674.562	0
16	4761	41272.983	0
16	4835	41753.241	0
16	4899	42030.122	0
17	51	543.114	0
17	114	850.255	0
17	166	1146.336	0
17	247	1672.604	0
17	378	2737.713	0
17	430	3314.466	0
17	475	3661.302	0
17	515	4080.151	0
17	567	4556.198	0
17	617	4885.057	0
17	728	5900.436	0
17	785	6258.878	0
17	863	6727.143	0
17	937	7330.375	0
17	992	7973.873	0
17	1075	8674.851	0
17	1117	8970.272	0
17	1237	10148.853	0
17	1286	10409.62	0
17	1341	10725.433	0
17	1389	11055.071	0
17	1552	13019.58	0
17	1630	14009.538	0
17	1663	14285.663	0
17	1753	15030.422	0
17	1873	16284.273	0
17	1930	16582.57	0
17	1974	16835.63	155.711
17	2058	17397.594	0
17	2115	17835.232	0
17	2159	18262.603	0
17	2209	18697.245	0
17	2271	19404.679	0
17	2355	20296.493	0
17	2439	21009.437	0
17	2490	21317.734	303.327
17	2524	21732.216	0
17	2577	22124.853	0
17	2621	22437.701	0
17	2657	22734.116	0
17	2772	24390.277	0
17	2820	25042.199	0
17	2870	25326.349	0
17	2923	25666.32	0
17	2964	25930.695	0
17	3064	26898.526	0
17	3115	27424.979	0
17	3151	27711.791	0
17	3208	27999.58	0
17	3263	28264.761	58.584
17	3313	28516.04	157.24
17	3370	28816.862	0
17	3418	29073.086	166.567
17	3474	29676.002	0
17	3528	30289.915	0
17	3581	30831.062	0
17	3733	32375.004	0
17	3762	32887.228	0
17	3830	33464.716	0
17	3896	33798.248	0
17	3958	34518.255	0
17	3983	34875.352	0
17	4077	35619.405	0
17	4126	35892.516	231.568
17	4206	36503.653	0
17	4308	37286.13	0
17	4444	38309.116	0
17	4469	38704.766	0
17	4513	39071.58	0
17	4645	40342.36	0