version 2
run General-0-20220123-23:54:23-11768
attr configname General
attr datetime 20220123-23:54:23
attr experiment General
attr inifile omnetpp.ini
attr iterationvars ""
attr iterationvarsf ""
attr measurement ""
attr network PolicyB
attr processid 11768
attr repetition 0
attr replication #0
attr resultdir results
attr runnumber 0
attr seedset 0

vector 0 PolicyB.queue4 "time spent on the queue" ETV
attr interpolationmode none
vector 1 PolicyB.queue4 "queue size after modification" ETV
attr interpolationmode none
vector 2 PolicyB.queue1 "time spent on the queue" ETV
attr interpolationmode none
vector 3 PolicyB.queue1 "queue size after modification" ETV
attr interpolationmode none
vector 4 PolicyB.queue2 "time spent on the queue" ETV
attr interpolationmode none
vector 5 PolicyB.queue2 "queue size after modification" ETV
attr interpolationmode none
vector 6 PolicyB.queue3 "time spent on the queue" ETV
attr interpolationmode none
vector 7 PolicyB.queue3 "queue size after modification" ETV
attr interpolationmode none
vector 8 PolicyB.queue0 "time spent on the queue" ETV
attr interpolationmode none
vector 9 PolicyB.queue0 "queue size after modification" ETV
attr interpolationmode none
vector 10 PolicyB.queue2 "processing time with client order" ETV
attr interpolationmode none
vector 11 PolicyB.queue3 "processing time with client order" ETV
attr interpolationmode none
vector 12 PolicyB.queue4 "processing time with client order" ETV
attr interpolationmode none
vector 13 PolicyB.queue0 "processing time with client order" ETV
attr interpolationmode none
vector 14 PolicyB.queue1 "processing time with client order" ETV
attr interpolationmode none
0	2	0	0
0	41	193.592	0
0	65	285.329	3.754
0	191	892.112	286.046
0	214	938.257	6.571
0	259	1099.044	54.55
0	403	1691.399	0.834
0	420	1764.302	18.636
0	456	1947.101	173.416
0	511	2229.239	226.337
0	576	2448.096	48.997
0	593	2500.94	7.09
0	659	2777.075	153.685
0	704	2986.391	57.326
0	732	3117.26	85.82
0	777	3283.455	122.714
0	836	3509.923	5.198
0	950	4101.927	252.509
0	1087	4605.491	70.96
0	1098	4665.557	131.026
0	1170	5009.29	274.891
0	1191	5136.91	121.091
0	1211	5219.949	17.549
0	1235	5328.111	125.711
0	1257	5434.61	69.823
0	1311	5658.582	40.312
0	1400	5954.025	125.71
0	1431	6053.534	81.804
0	1504	6324.797	42.122
0	1589	6675.41	120.68
0	1617	6827.813	273.083
0	1791	7590.338	163.367
0	1818	7721.43	68.738
0	1907	8143.776	200.702
0	1963	8370.57	87.608
0	2000	8510.554	137.537
0	2024	8592.519	54.667
0	2114	8961.141	189.163
0	2123	8995.173	223.195
0	2259	9537.412	20.884
0	2288	9734.604	149.297
0	2303	9767.156	6.343
0	2323	9884.307	74.241
0	2334	9929.652	30.008
0	2528	10668.611	87.931
0	2550	10727.405	20.585
0	2589	10897.592	114.161
0	2614	10993.253	11.599
0	2653	11175.497	160.754
0	2682	11235.157	42.433
0	2767	11689.136	24.322
0	2818	11906.778	170.236
0	2839	11986.294	34.817
0	2884	12180.641	143.79
0	2910	12278.784	241.933
0	2944	12363.874	7.09
0	2954	12420.406	63.622
0	3025	12774.767	209.977
0	3100	13018.387	38.941
0	3132	13189.088	5.241
0	3148	13276.548	82.73
0	3163	13374.541	7.194
0	3246	13750.082	109.289
0	3396	14335.981	52.285
0	3448	14561.212	118.42
0	3470	14657.502	59.698
0	3491	14713.059	115.255
0	3496	14748.259	150.455
0	3598	15102.953	260.468
0	3613	15140.019	297.534
0	3637	15221.374	12.673
0	3757	15748.934	27.482
0	3771	15794.148	23.036
0	3841	16122.83	212.019
0	3886	16307.931	81.655
0	3959	16636.619	307.83
0	4000	16777.396	55.895
0	4012	16829.118	19.9
0	4038	16960.473	84.156
0	4077	17105.301	97.258
0	4111	17258.167	22.524
0	4143	17394.212	128.714
0	4237	17766.565	107.84
0	4251	17835.547	26.112
0	4306	18091.495	222.721
0	4337	18211.228	7.936
0	4378	18321.332	0.255
0	4407	18432.689	98.481
0	4469	18756.541	239.868
0	4536	19082.666	148.235
0	4596	19426.806	65.025
0	4613	19524.504	73.402
0	4659	19814.884	190.721
0	4669	19855.589	33.838
0	4705	19960.305	36.104
0	4757	20210.518	218.578
0	4774	20259.511	267.571
0	4782	20305.913	33.434
0	4813	20421.694	21.786
0	4855	20634.286	16.194
0	4912	20903.656	97.871
0	4949	21062.86	75.365
0	4970	21146.064	21.287
0	5040	21418.288	171.3
0	5053	21467.227	220.239
0	5063	21539.297	292.309
0	5082	21585.893	38.481
0	5098	21616.593	27.836
0	5128	21720.288	35.657
0	5155	21891.351	105.925
0	5165	21930.229	5.784
0	5197	22097.042	159.672
0	5349	22868.91	9.901
0	5364	23005.919	85.521
0	5398	23162.662	116.715
0	5422	23306.659	138.433
0	5515	23642.517	24.633
0	5557	23768.091	124.155
0	5570	23809.83	165.894
0	5592	23858.578	35.513
0	5614	23939.351	62.568
0	5648	24193.384	166.279
0	5739	24616.988	64.769
0	5779	24864.258	143.224
0	5918	25392.531	141.567
0	5944	25484.823	54.959
0	6019	25785.683	146.677
0	6076	26023.012	13.861
0	6102	26146.29	84.174
0	6123	26246.65	28.799
0	6165	26467.311	121.248
0	6212	26735.842	12.026
0	6219	26780.173	13.785
0	6234	26834.613	54.303
0	6323	27249.516	150.205
0	6335	27288.759	18.435
0	6349	27340.414	32.712
0	6375	27442.037	63.422
0	6422	27606.116	135.608
0	6435	27768.659	112.467
0	6488	27961.837	101.931
0	6624	28583.588	98.711
0	6634	28620.144	3.16
0	6691	28802.711	161.197
0	6717	28922.821	0.546
0	6753	29093.744	79.428
0	6793	29245.262	76.991
0	6810	29324.841	156.57
0	6864	29587.129	149.039
0	6904	29782.362	54.783
0	6969	30002.161	184.972
0	7006	30143.231	140.796
0	7138	30563.475	61.778
0	7185	30699.332	110.624
0	7246	31005.931	36.92
0	7298	31254.226	227.045
0	7317	31378.015	350.834
0	7380	31712.999	156.933
0	7514	32313.078	318.765
0	7614	32675.236	139.107
0	7627	32737.623	39.57
0	7643	32774.442	27.053
0	7655	32821.054	45.056
0	7671	32869.246	93.248
0	7731	33197.047	121.136
0	7761	33334.77	106.221
0	7863	33692.937	14.598
0	7899	33824.22	43.201
0	7941	34010.318	96.436
0	7977	34254.882	154.451
0	8028	34460.981	204.216
0	8101	34754.128	23.276
0	8122	34808.322	41.045
0	8157	34966.317	116.61
0	8179	35002.317	6.362
0	8237	35226.644	84.542
0	8250	35256.883	17.819
0	8301	35513.397	51.319
0	8337	35692.177	75.704
0	8355	35765.901	149.428
0	8384	35890.553	98.322
0	8438	36085.936	41.074
0	8454	36137.938	23.773
0	8491	36268.482	94.937
0	8588	36599.608	12.099
0	8605	36667.021	65.97
0	8611	36719.267	118.216
0	8659	36934.102	191.931
0	8681	37070.119	116.458
0	8710	37134.229	16.514
0	8732	37210.223	58.562
0	8789	37427.593	178.467
0	8807	37506.439	257.313
0	8840	37737.827	71.857
0	8909	38070.928	42.937
0	8997	38432.536	177.445
0	9021	38502.59	247.499
0	9031	38534.186	279.095
0	9126	39066.739	99.287
0	9150	39148.753	42.132
0	9164	39252.3	32.085
0	9217	39487.666	140.025
0	9238	39550.556	202.915
0	9280	39772.931	14.012
0	9310	39891.878	108.968
0	9431	40494.924	181.404
0	9446	40543.002	11.228
0	9463	40580.023	7.007
0	9493	40724.722	93.336
0	9520	40816.403	76.456
0	9668	41575.286	547.802
0	9691	41658.485	52.403
0	9746	41883.987	3.923
0	9768	41964.904	28.171
0	9860	42283.219	223.883
0	9886	42375.346	84.027
0	9951	42742.238	38.814
0	10026	43119.006	30.996
0	10048	43192.944	39.939
0	10118	43480.432	20.757
0	10149	43592.056	70.1
0	10165	43675.68	10.248
0	10213	43872.088	25.607
0	10239	43924.359	33.659
0	10247	43975.123	14.673
0	10335	44345.801	0.985
0	10393	44589.757	205.839
0	10430	44695.01	103.998
0	10453	44791.077	58.042
0	10623	45384.59	86.4
0	10666	45588.112	106.956
0	10722	45926.434	56.625
0	10754	46118.608	38.568
0	10792	46323.947	50.157
0	10841	46516.631	41.606
0	10887	46745.435	212.764
0	10916	46905.589	36.742
0	10954	47042.914	42.415
0	10970	47131.533	12.857
0	11031	47362.675	212.717
0	11044	47413.419	16.344
0	11077	47548.474	131.559
0	11119	47709.725	2.923
0	11218	48178.699	51.49
0	11331	48560.66	108.74
0	11352	48659.766	37.86
0	11380	48760.733	1.398
0	11396	48806.757	47.422
0	11449	49129.524	97.595
0	11585	49810.858	28.396
0	11641	50062.213	30.172
0	11684	50347	157.32
0	11693	50378.097	16.174
0	11725	50528.713	79.329
0	11742	50577.99	128.606
0	11771	50807.468	159.556
0	11796	50918.092	1.431
0	11826	51017.124	58.416
0	11838	51057.736	31.188
0	11854	51115.673	47.297
0	11867	51163.376	38.351
0	11917	51393.139	180.638
0	11941	51525.002	16.573
0	11986	51718.818	193.631
0	12011	51810.594	5.328
0	12032	51947.141	77.338
0	12107	52261.382	27.873
0	12151	52396.467	102.245
0	12231	52744.109	1.177
0	12261	52878.309	128.015
0	12282	52982.266	40.13
0	12401	53381.332	133.638
0	12506	53942.682	251.803
0	12529	54035.45	22.399
0	12607	54302.251	158.525
0	12630	54379.951	64.284
0	12673	54521.178	82.986
0	12732	54781.495	111.233
0	12805	55143.527	199.752
0	12906	55519.635	118.606
0	12925	55549.903	6.942
0	12989	55769.236	60.238
0	13029	55950.042	165.059
0	13085	56122.73	24.528
0	13185	56493.239	193.072
0	13197	56548.626	5.792
0	13206	56580.02	12.651
0	13221	56654.443	36.642
0	13254	56753.213	61.48
0	13269	56797.197	15.457
0	13319	57004.895	51.713
0	13352	57125.283	31.48
0	13397	57339.089	13.568
0	13411	57433.227	61.283
0	13462	57644.918	174.801
0	13476	57701.134	46.965
0	13522	57911.193	16.208
0	13535	57956.888	37.847
0	13705	58650.287	170.51
0	13737	58750.29	21.521
0	13771	58898.743	169.974
0	13823	59096.532	68.725
0	13851	59202.18	174.373
0	13880	59335.444	0.392
0	13899	59397.02	39.715
0	13910	59431.124	13.828
0	13965	59588.122	134.977
0	14085	60083.246	165.093
0	14135	60320.153	187.51
0	14151	60395.066	44.897
0	14160	60434.582	14.874
0	14184	60529.947	16.438
0	14277	60977.224	139.274
0	14313	61159.679	115.871
0	14322	61233.369	2.904
0	14356	61344.167	109.065
0	14394	61427.702	2.706
0	14429	61504.624	79.628
0	14449	61580.512	29.421
0	14469	61633.382	15.778
0	14491	61712.381	55.165
0	14517	61760.588	10.194
0	14551	61907.585	85.062
0	14593	62116.877	48.864
0	14611	62238.811	52.891
0	14684	62448.282	97.316
0	14838	63024.378	11.412
0	14864	63183.347	32.392
0	14952	63526.685	105.73
0	14975	63612.098	33.593
0	15046	63868.802	124.828
0	15069	63957.975	48.97
0	15088	64058.354	149.349
0	15117	64170.538	78.868
0	15172	64367.98	5.131
0	15202	64421.456	31.458
0	15226	64478.198	49.481
0	15256	64596.522	167.805
0	15303	64820.72	392.003
0	15317	64872.535	36.277
0	15375	65038.124	94.448
0	15406	65165.587	221.911
0	15454	65479.973	92.906
0	15495	65585.142	82.64
0	15584	65978.092	153.452
0	15626	66156.459	94.994
0	15655	66234.193	22.936
0	15679	66361.44	102.736
0	15710	66542.838	82.097
0	15718	66581.687	120.946
0	15764	66733.72	112.304
0	15867	67120.672	100.036
0	15904	67231.741	12.25
0	15937	67397.99	178.499
0	15982	67600.187	75.087
0	16016	67717.019	39.752
0	16036	67795.234	34.948
0	16049	67842.34	37.575
0	16093	67976.093	46.196
0	16130	68104.735	55.39
0	16179	68329.238	168.464
0	16199	68380.587	15.128
0	16235	68515.111	121.935
0	16303	68839.604	15.98
0	16317	68891.777	17.364
0	16334	68924.138	49.725
0	16351	69026.031	97.187
0	16375	69098.778	59.669
0	16433	69431.736	228.811
0	16475	69497.952	34.795
0	16551	69702.493	174.851
0	16627	70132.066	71.442
0	16660	70203.109	142.485
0	16709	70428.204	82.782
0	16732	70474.673	27.785
0	16786	70650.709	127.96
0	16846	70959.364	34.109
0	16920	71276.578	142.493
0	16964	71399.637	62.176
0	16982	71490.174	89.073
0	17009	71553.282	39.25
0	17027	71635.728	69.34
0	17062	71812.331	106.014
0	17086	71931.824	87.023
0	17103	72007.531	55.528
0	17182	72258.874	87.137
0	17298	72781.255	111.868
0	17390	73168.866	115.551
0	17428	73391.992	151.425
0	17449	73461.289	48.579
0	17468	73529.335	10.828
0	17504	73639.757	44.861
0	17585	73977.392	108.243
0	17611	74102.222	82.74
0	17631	74179.58	42.721
0	17664	74298.402	109.64
0	17680	74359.923	21.343
0	17702	74491.366	152.786
0	17747	74728.733	99.138
0	17773	74874.341	100.818
0	17812	75040.438	120.121
0	17848	75178.91	72.369
0	17963	75564.82	96.468
0	17999	75678.62	13.021
0	18012	75745.339	65.738
0	18061	75892.795	18.087
0	18093	75996.22	72.153
0	18177	76343.814	32.662
0	18184	76391.433	80.281
0	18238	76664.697	26.177
0	18261	76717.773	79.253
0	18299	76888.77	156.035
0	18327	76958.558	15.701
0	18365	77171.244	84.076
0	18377	77210.825	36.308
0	18396	77248.847	74.33
0	18467	77508.713	160.845
0	18499	77653.314	119.882
0	18510	77693.232	159.8
0	18525	77765.697	60.511
0	18613	78048.776	149.929
0	18641	78163.636	55.635
0	18693	78296.927	68.166
0	18731	78459.816	130.042
0	18746	78497.991	32.899
0	18796	78668.725	22.472
0	18867	79040.422	107.376
0	18918	79269.86	133.54
0	19009	79601.434	94.049
0	19064	79812.638	158.136
0	19130	80056.987	82.478
0	19136	80099.226	124.717
0	19190	80295.859	74.822
0	19210	80392.238	37.58
0	19227	80455.406	28.765
0	19275	80629.243	137.949
0	19296	80712.435	47.707
0	19374	81054.147	12.567
0	19389	81125.061	64.342
0	19409	81184.172	4.674
0	19428	81285.369	92.76
0	19476	81454.12	63.429
0	19488	81489.716	99.025
0	19518	81602.558	104.21
0	19534	81634.341	15.137
0	19580	81764.703	112.863
0	19592	81798.706	0.292
0	19614	81859.594	59.453
0	19635	81950.627	78.491
0	19669	82066.104	96.01
0	19701	82215.789	131.347
0	19709	82260.202	30.84
0	19732	82337.775	48.257
0	19775	82469.8	122.866
0	19793	82501.956	21.167
0	19809	82541.016	9.147
0	19826	82629.144	86.919
0	19848	82673.457	21.675
0	19871	82765.624	15.524
0	19894	82873.383	123.283
0	19942	83074.245	74.202
0	19976	83240.894	33.345
0	19992	83287.404	29.409
0	20023	83410.474	8.972
0	20069	83699.282	264.261
0	20113	83955.535	152.315
0	20155	84240.624	4.3
0	20170	84311.532	75.208
0	20192	84375.273	39.178
0	20344	85065.765	23.591
0	20413	85297.366	93.029
0	20443	85457.226	23.779
0	20469	85587.159	9.355
0	20495	85683.938	94.849
0	20513	85731.693	43.363
0	20558	85913.46	148.374
0	20579	86036.606	13.321
0	20586	86069.64	16.528
0	20632	86275.996	18.038
0	20728	86668.907	4.627
0	20804	87005.909	259.553
0	20814	87094.587	348.231
0	20869	87395.458	215.61
0	20910	87601.559	42.365
0	20937	87706.479	87.026
0	20963	87842.059	1.387
0	20988	87956.384	40.583
0	20996	87995.671	79.87
0	21007	88043.833	1.201
0	21022	88090.83	20.395
0	21086	88361.281	198.171
0	21119	88494.762	128.501
0	21162	88680.737	15.115
0	21239	88938.662	102.085
0	21258	88986.076	10.592
0	21303	89228.123	1.772
0	21322	89304.752	78.401
0	21404	89577.165	17.951
0	21440	89721.281	162.067
0	21487	89957.644	232.369
0	21526	90085.798	113.763
0	21593	90312.678	186.939
0	21618	90406.189	79.614
0	21663	90581.495	33.632
0	21683	90638.473	10.069
0	21695	90703.35	74.946
0	21739	91011.416	90.388
0	21785	91185.584	11.835
0	21831	91323.734	120.501
0	21891	91699.63	54.035
0	21908	91826.96	38.884
0	21935	91901.308	59.624
0	21970	92028.643	22.631
0	21989	92076.723	45.446
0	22043	92270.586	187.584
0	22068	92410.372	30.947
0	22088	92467.378	37.306
0	22136	92669.123	130.366
0	22188	92849.781	117.45
0	22215	92951.009	90.505
0	22261	93207.122	181.376
0	22273	93237.868	7.02
0	22283	93329.641	90.422
0	22308	93481.605	137.744
0	22389	93706.84	27.417
0	22469	94092.359	12.187
0	22494	94221.749	80.208
0	22512	94280.507	55.868
0	22604	94594.088	9.48
0	22659	94818.058	176.634
0	22685	94924.174	26.668
0	22743	95189.521	184.283
0	22771	95294.273	16.179
0	22782	95329.553	10.278
0	22803	95469.272	91.131
0	22854	95721.704	122.257
0	22877	95882.84	30.817
0	22939	96136.148	83.429
0	22963	96209.78	41.671
0	23011	96402.425	151.418
0	23052	96590.482	13.994
0	23124	96912.96	90.817
0	23205	97383.2	121.892
0	23254	97639.622	39.913
0	23292	97801.339	61.789
0	23302	97861.089	121.539
0	23337	97979.292	57.348
0	23427	98259.251	126.75
0	23441	98303.471	11.584
0	23495	98564.446	114.301
0	23646	99350.029	162.404
0	23667	99487.886	29.832
0	23711	99643.034	16.448
0	23800	100071.32	40.556
0	23843	100252.285	64.176
0	23910	100486.886	142.45
0	23933	100560.577	1.886
0	24081	101215.537	104.627
0	24104	101341.225	94.888
0	24134	101485.746	117.383
0	24153	101567.221	78.81
0	24168	101603.883	35.552
0	24194	101724.272	41.507
0	24249	101945.03	102.469
0	24293	102182.259	99.744
0	24341	102448.832	74.777
0	24366	102479.259	30.041
0	24378	102539.527	1.813
0	24404	102680.312	83.659
0	24460	102907.179	22.189
0	24511	103109.534	127.974
0	24582	103473.84	27.101
0	24647	103738.754	142.223
0	24668	103860.959	102.36
0	24687	103910.493	46.79
0	24754	104108.9	191.098
0	24791	104272.676	3.622
0	24816	104323.76	37.843
0	24862	104556.832	84.001
0	24930	104760.759	151.615
0	24953	104828.102	28.842
0	24964	104862.508	63.248
0	24989	104919.761	36.201
0	25009	105031.149	43.678
0	25038	105172.566	13.85
0	25061	105236.95	78.234
0	25085	105316.773	5.197
0	25103	105377.64	66.064
0	25130	105481.376	72.082
0	25202	105729	73.394
0	25247	105977.436	321.83
0	25299	106172.29	190.383
0	25317	106262.608	41.618
0	25409	106590.325	84.518
0	25592	107178.225	68.564
0	25618	107292.714	95.387
0	25643	107366.792	21.672
0	25661	107463.608	118.488
0	25700	107599.803	97.995
0	25723	107746.103	126.16
0	25736	107803.031	49.287
0	25758	107854.173	13.714
0	25779	107917.804	77.345
0	25803	107998.946	73.511
0	25841	108188.463	94.485
0	25854	108267.734	11.006
0	25870	108335.364	10.179
0	25921	108520.61	163.486
0	26039	108902.117	67.353
0	26118	109127.94	55.984
0	26230	109566.023	273.848
0	26287	109719.665	11.01
0	26307	109790.846	82.191
0	26336	109923.53	101.122
0	26377	110065.11	48.333
0	26454	110464.565	115.952
0	26459	110523.267	174.654
0	26605	111208.475	167.56
0	26641	111288.694	50.478
0	26651	111324.673	20.77
0	26666	111360.836	32.332
0	26684	111446.379	117.875
0	26700	111525.816	69.121
0	26728	111587.12	45.7
0	26744	111644.751	35.988
0	26764	111731.076	27.111
0	26775	111768.509	64.544
0	26844	111971.96	59.801
0	26872	112133.038	35.593
0	26922	112284.229	10.237
0	27015	112594.877	60.115
0	27062	112751.983	14.759
0	27123	112949.338	62.108
0	27144	113017.41	55.529
0	27158	113047.74	85.859
0	27184	113135.44	43.04
0	27242	113427.105	95.495
0	27268	113583.554	84.989
0	27349	113807.881	51.572
0	27395	114024.657	171.949
0	27429	114152.032	83.043
0	27451	114196.073	127.084
0	27470	114244.906	17.662
0	27531	114513.398	37.37
0	27631	114947.191	114.153
0	27700	115370.988	334.677
0	27716	115413.643	34.561
0	27744	115525.076	32.797
0	27816	115772.569	0.553
0	27828	115824.117	52.101
0	27871	115967.601	110.676
0	27899	116046.692	18.413
0	27912	116085.274	30.182
0	27923	116121.85	14.806
0	27944	116189.97	45.949
0	27963	116345.045	201.024
0	27996	116508.417	87.692
0	28035	116699.607	120.42
0	28044	116730.554	5
0	28143	117113.879	201.767
0	28296	117870.339	41.036
0	28350	117993.027	51.094
0	28367	118052.981	40.86
0	28437	118315.383	130.807
0	28468	118390.811	52.459
0	28522	118541.326	51.67
0	28567	118689.706	110.907
0	28583	118779.06	200.261
0	28592	118815.742	14.552
0	28599	118849.538	8.929
0	28789	119679.378	367.022
0	28822	119785.496	473.14
0	28857	119899.526	59.259
0	28943	120217.989	6.152
0	28958	120264.149	37.106
0	28983	120396.313	46.85
0	29065	120589.663	33.972
0	29103	120757.634	33.725
0	29142	120913.965	150.232
0	29185	121089.589	126.477
0	29214	121198.026	87.757
0	29252	121370.349	43.625
0	29311	121644.79	238.925
0	29324	121675.746	24.828
0	29350	121761.906	42.133
0	29377	121862.4	14.605
0	29404	121948.051	100.256
0	29432	122045.921	37.689
0	29468	122218.908	56.514
0	29475	122253.956	18.421
0	29497	122397.693	27.15
0	29529	122519.51	148.967
0	29582	122690.309	5.519
0	29651	122903.847	10.969
0	29663	122971.774	58.727
0	29726	123268.391	35.072
0	29741	123318.184	48.265
0	29758	123382.312	112.393
0	29829	123718.745	90.067
0	29839	123757.357	128.679
0	29847	123795.993	35.13
0	29869	123832.089	17.023
0	29886	123886.043	27.852
0	29911	123996.185	22.309
0	29929	124063.966	41.655
0	29964	124237.284	76.917
0	29990	124342.173	76.165
0	30029	124513.508	0.345
0	30048	124596.502	19.555
0	30067	124648.415	46.52
0	30166	125067.228	127.2
0	30194	125231.785	62.509
0	30210	125339.368	81.287
0	30231	125428.607	52.205
0	30281	125559.409	44.177
0	30352	125874.084	87.451
0	30361	125910.681	15.995
0	30427	126186.665	74.894
0	30481	126416.35	166.344
0	30514	126580.971	42.972
0	30528	126625.845	87.846
0	30579	126873.713	145.731
0	30653	127150.689	224.246
0	30698	127377.076	121.811
0	30734	127623.56	158.09
0	30776	127780.287	39.638
0	30867	128268.99	15.668
0	30916	128465.349	138.935
0	30946	128542.032	56.41
0	30996	128729.157	107.844
0	31052	128922.561	52.964
0	31098	129093.056	147.794
0	31171	129327.214	196.661
0	31182	129418.364	31.659
0	31212	129515.13	59.256
0	31225	129597.586	19.011
0	31276	129843.967	100.681
0	31361	130143.113	53.207
0	31399	130255.605	46.065
0	31479	130670.665	89.908
0	31522	130826.043	17.959
0	31527	130857.966	49.882
0	31543	130914.942	3.527
0	31624	131267.265	120.477
0	31664	131458.848	67.916
0	31695	131538.881	14.306
0	31716	131684.101	159.526
0	31725	131715.071	16.798
0	31753	131856.585	109.401
0	31760	131890.696	25.339
0	31856	132240.29	94.461
0	31889	132398.23	114.14
0	31942	132579.817	62.604
0	32231	133830.828	16.304
0	32260	133934.107	74.587
0	32292	134039.926	86.87
0	32301	134096.9	30.519
0	32323	134253.354	186.973
0	32332	134298.015	1.781
0	32344	134356.174	59.94
0	32371	134466.783	8.354
0	32396	134553.483	35.289
0	32488	135030.487	122.326
0	32537	135196.023	57.239
0	32560	135300.217	80.813
0	32632	135506.489	2.206
0	32655	135572.362	23.873
0	32674	135654.853	22.665
0	32732	135866.621	12.749
0	32777	136097.651	203.196
0	32818	136266.73	372.275
0	32901	136541.722	104.051
0	32923	136616.646	69.867
0	32945	136704.365	5.958
0	33057	137122.626	69.447
0	33074	137178.733	125.554
0	33095	137292.861	59.795
0	33125	137400.642	62.588
0	33161	137586.859	35.255
0	33202	137776.829	119.255
0	33227	137917.938	128.022
0	33277	138072.274	53.088
0	33284	138104.031	17.024
0	33299	138158.141	17.156
0	33326	138232.467	32.593
0	33380	138397.56	31.839
0	33410	138562.78	50.352
0	33468	138786.096	72.946
0	33535	139029.911	316.761
0	33553	139100.137	59.03
0	33560	139135.037	16.354
0	33601	139318.696	42.39
0	33670	139584.185	13.286
0	33734	139839.723	135.476
0	33773	140009.544	128.182
0	33799	140064.654	12.776
0	33855	140373.609	60.987
0	33957	140777.036	137.529
0	34013	141041.38	84.719
0	34113	141360.662	29.56
0	34133	141479.793	148.691
0	34162	141527.985	23.18
0	34245	141938.464	11.827
0	34256	141983.424	38.043
0	34352	142456.728	5.347
0	34363	142488.077	36.696
0	34436	142784.736	135.05
0	34498	143065.754	164.933
0	34521	143139.929	68.37
0	34554	143372.654	87.287
0	34604	143607.755	53.106
0	34641	143713.254	46.618
0	34665	143761.598	37.652
0	34718	143961.774	85.032
0	34781	144103.991	76.116
0	34800	144169.865	65.772
0	34903	144474.664	29.7
0	34933	144605.191	102.577
0	34994	144896.214	44.428
0	35009	144951.538	33.856
0	35047	145136.011	28.029
0	35058	145189.405	36.615
0	35216	145977.963	70.883
0	35244	146099.358	30.406
0	35288	146245.999	99.091
0	35296	146310.421	163.513
0	35345	146609.488	12.142
0	35360	146738.685	141.339
0	35417	146978.783	152.425
0	35431	147039.644	41.627
0	35503	147404.669	222.775
0	35593	147809.671	29.12
0	35684	148101.102	59.212
0	35748	148316.497	60.756
0	35765	148375.116	119.375
0	35791	148483.805	15.12
0	35883	148776.392	264.579
0	35963	149041.809	94.391
0	35971	149080.006	132.588
0	35982	149153.45	56.91
0	36075	149503.484	111.608
0	36195	149923.182	275.524
0	36269	150156.854	2.541
0	36298	150258.849	92.513
0	36336	150371.084	30.73
0	36382	150516.585	31.136
0	36402	150605.821	120.372
0	36439	150755.108	34.777
0	36464	150812.989	57.703
0	36492	150931.603	176.317
0	36529	151040.226	56.674
0	36559	151129.093	70.233
0	36592	151283.738	30.858
0	36646	151576.825	89.839
0	36664	151617.574	130.588
0	36674	151651.073	164.087
0	36702	151790.278	37.957
0	36734	151928.989	119.691
0	36739	151994.068	184.77
0	36768	152094.811	7.238
0	36786	152154.463	30.685
0	36960	152830.643	104.23
0	36972	152882.197	44.359
0	36991	152916.038	25.824
0	37037	153064.849	132.884
0	37049	153116.48	184.515
0	37073	153196.398	37.464
0	37095	153273.987	34.903
0	37164	153533.634	48.797
0	37189	153666.19	52.347
0	37273	153926.395	202.321
0	37298	154064.568	135.505
0	37307	154125.415	196.352
0	37330	154286.327	153.357
0	37344	154317.968	27.816
0	37396	154430.132	55.232
0	37436	154634.062	16.371
0	37445	154674.788	57.097
0	37453	154776.387	41.702
0	37557	155134.056	46.876
0	37574	155184.725	21.206
0	37625	155423.841	171.112
0	37715	155830.733	204.103
0	37816	156227.645	116.759
0	37843	156359.62	50.226
0	37898	156578.659	75.596
0	37979	156906.12	59.7
0	38005	157034.134	122.469
0	38059	157335.278	75.102
0	38135	157610.284	176.253
0	38152	157733.374	52.622
0	38170	157795.367	28.081
0	38193	157832.494	65.208
0	38246	158052.469	41.818
0	38310	158307.462	157.705
0	38335	158401.464	5.59
0	38404	158616.446	55.21
0	38421	158656.758	95.522
0	38467	158870.921	180.642
0	38595	159446.232	264.587
0	38632	159662.494	110.124
0	38688	159821.299	78.026
0	38704	159898.535	12.882
0	38725	159972.404	86.751
0	38766	160056.015	40.599
0	38776	160092.905	32.107
0	38799	160223.548	34.048
0	38832	160383.468	134.315
0	38895	160652.608	403.455
0	38933	160858.754	5.355
0	38947	160940.77	87.371
0	38976	161013.622	61.302
0	38993	161072.829	120.509
0	39035	161234.473	154.297
0	39056	161288.606	0.397
0	39080	161365.608	45.489
0	39116	161491.586	109.012
0	39210	161836.028	36.098
0	39242	161953.169	153.239
0	39280	162063.608	95.75
0	39290	162112.848	47.021
0	39319	162214.2	2.58
0	39338	162267.036	55.416
0	39365	162423.797	75.471
0	39395	162532.866	71.682
0	39428	162606.032	29.084
0	39440	162681.314	64.282
0	39530	163014.615	34.203
0	39559	163173.228	79.811
0	39621	163478.383	38.55
0	39762	164091.8	66.284
0	39828	164468.227	36.509
0	39852	164591.516	42.051
0	39948	165019.215	264.45
0	40012	165210.339	124.348
0	40071	165453.792	367.801
0	40128	165695.788	180.939
0	40141	165758.596	21.727
0	40167	165892.361	6.015
0	40195	165954.33	59.382
0	40213	166053.388	9.618
0	40330	166550.73	54.343
0	40364	166666.889	61.844
0	40376	166734.714	51.578
0	40397	166799.593	39.969
0	40467	167153.993	169.64
0	40553	167577.566	46.374
0	40650	167900.072	5.187
0	40726	168140.648	5.612
0	40736	168178.881	43.845
0	40775	168312.486	99.993
0	40816	168504.197	30.76
0	40827	168579.646	106.209
0	40905	168856.555	10.039
0	40918	168893.231	32.475
0	40938	168930.912	70.156
0	41020	169300.075	59.279
0	41059	169484.284	82.703
0	41085	169562.042	160.461
0	41109	169657.08	255.499
0	41128	169714.254	312.673
0	41154	169782.757	45.358
0	41187	169857.339	36.372
0	41282	170188.98	60.7
0	41315	170352.783	125.537
0	41330	170394.253	41.367
0	41360	170555.891	160.909
0	41374	170636.265	54.404
0	41459	171056.704	250.121
0	41489	171168.35	29.908
0	41522	171252.453	37.247
0	41533	171295.865	26.568
0	41547	171340.865	33.19
0	41596	171560.106	60.044
0	41636	171715.819	16.445
0	41645	171746.167	46.793
0	41686	171894.664	86.212
0	41722	171972.063	65.807
0	41747	172047.638	34.481
0	41764	172082.891	2.332
0	41779	172188.207	2.352
0	41789	172229.502	43.647
0	41911	172793.14	36.84
0	41965	173021.304	118.344
0	41984	173147.816	105.138
0	42026	173362.481	206.046
0	42081	173593.829	97.168
0	42131	173762.072	21.026
0	42192	174085.31	61.832
0	42241	174309.333	69.218
0	42266	174373.091	7.16
0	42278	174404.678	6.592
0	42303	174478.882	62.861
0	42344	174681.04	102.412
0	42393	174905.544	121.997
0	42417	174980.261	36.914
0	42458	175189.709	11.008
0	42512	175437.859	198.804
0	42536	175548.65	73.686
0	42561	175608.661	48.217
0	42621	175791.854	77.054
0	42654	175952.925	154.934
0	42677	176047.405	59.906
0	42721	176223.607	95.636
0	42870	177003.611	570.925
0	42923	177250.224	170.981
0	42938	177290.473	211.23
0	42954	177331.082	251.839
0	42964	177374.458	13.291
0	42985	177409.616	48.449
0	43087	177815.519	55.341
0	43108	177888.398	71.825
0	43116	177936.357	44.837
0	43133	178004.305	27.047
0	43158	178123.57	38.144
0	43224	178331.854	128.582
0	43301	178782.363	93.46
0	43354	179047.436	65.693
0	43387	179182.586	100.167
0	43450	179411.784	97.506
0	43509	179707.274	13.812
0	43560	179900.526	171.494
0	43622	180136.317	35.312
0	43646	180243.103	20.673
0	43773	180732.016	11.274
0	43783	180771.291	28.687
0	43925	181351.865	114.057
0	43963	181448.476	68.272
0	43993	181638.479	4.391
0	44041	181810.577	121.026
0	44138	182228.81	303.41
0	44189	182374.523	126.397
0	44292	182860.059	48.478
0	44314	182947.802	136.221
0	44434	183422.91	45.703
0	44471	183553.384	176.177
0	44536	183808.993	23.008
0	44553	183844.249	58.264
0	44601	184083.459	183.327
0	44628	184185.717	99.863
0	44705	184482.662	278.674
0	44850	185076.071	95.182
0	44859	185124.435	20.533
0	45007	185718.782	244.74
0	45019	185769.313	295.271
0	45104	186168.843	89.589
0	45120	186241.115	59.955
0	45166	186437.37	170.972
0	45178	186510.061	243.663
0	45183	186564.956	298.558
0	45284	186904.674	192.886
0	45310	187093.039	131.024
0	45349	187295.161	107.786
0	45374	187378.073	58.26
0	45406	187576.578	49.279
0	45438	187708.601	25.914
0	45452	187739.459	56.772
0	45508	187901.692	28.878
0	45516	188014.038	141.224
0	45578	188275.122	51.811
0	45649	188567.444	75.219
0	45728	188871.221	31.228
0	45749	188952.313	112.32
0	45795	189135.06	99.559
0	45828	189255.213	67.554
0	45835	189301.381	17.282
0	45905	189662.613	57.968
0	45939	189851.037	36.147
0	45954	189935.23	35.711
0	45976	190032.677	17.721
0	45983	190071.119	21.632
0	46009	190130.328	25.019
0	46039	190285.111	98.141
0	46054	190365.248	178.278
0	46127	190692.241	65.763
0	46149	190809.696	112.336
0	46241	191222.937	310.004
0	46303	191473.153	177.813