version 2
run General-0-20220609-19:17:58-17700
attr configname General
attr datetime 20220609-19:17:58
attr experiment General
attr inifile omnetpp.ini
attr iterationvars $0=789
attr iterationvarsf 789-
attr measurement $0=789
attr network PolicyB
attr processid 17700
attr repetition 0
attr replication #0
attr resultdir results
attr runnumber 0
attr seedset 789

vector 0 PolicyB.queue3 "time spent on the queue" ETV
attr interpolationmode none
vector 1 PolicyB.queue3 "queue size after modification" ETV
attr interpolationmode none
vector 2 PolicyB.queue2 "time spent on the queue" ETV
attr interpolationmode none
vector 3 PolicyB.queue2 "queue size after modification" ETV
attr interpolationmode none
vector 4 PolicyB.queue5 "time spent on the queue" ETV
attr interpolationmode none
vector 5 PolicyB.queue5 "queue size after modification" ETV
attr interpolationmode none
vector 6 PolicyB.queue3 "processing time with client order" ETV
attr interpolationmode none
vector 7 PolicyB.queue2 "processing time with client order" ETV
attr interpolationmode none
vector 8 PolicyB.queue4 "time spent on the queue" ETV
attr interpolationmode none
vector 9 PolicyB.queue4 "queue size after modification" ETV
attr interpolationmode none
vector 10 PolicyB.queue0 "time spent on the queue" ETV
attr interpolationmode none
vector 11 PolicyB.queue0 "queue size after modification" ETV
attr interpolationmode none
vector 12 PolicyB.queue1 "time spent on the queue" ETV
attr interpolationmode none
vector 13 PolicyB.queue1 "queue size after modification" ETV
attr interpolationmode none
vector 14 PolicyB.queue6 "time spent on the queue" ETV
attr interpolationmode none
vector 15 PolicyB.queue6 "queue size after modification" ETV
attr interpolationmode none
vector 16 PolicyB.queue7 "time spent on the queue" ETV
attr interpolationmode none
vector 17 PolicyB.queue7 "queue size after modification" ETV
attr interpolationmode none
vector 18 PolicyB.queue9 "time spent on the queue" ETV
attr interpolationmode none
vector 19 PolicyB.queue9 "queue size after modification" ETV
attr interpolationmode none
vector 20 PolicyB.queue5 "processing time with client order" ETV
attr interpolationmode none
vector 21 PolicyB.queue7 "processing time with client order" ETV
attr interpolationmode none
vector 22 PolicyB.queue8 "time spent on the queue" ETV
attr interpolationmode none
vector 23 PolicyB.queue8 "queue size after modification" ETV
attr interpolationmode none
vector 24 PolicyB.queue4 "processing time with client order" ETV
attr interpolationmode none
vector 25 PolicyB.queue8 "processing time with client order" ETV
attr interpolationmode none
vector 26 PolicyB.queue9 "processing time with client order" ETV
attr interpolationmode none
vector 27 PolicyB.queue1 "processing time with client order" ETV
attr interpolationmode none
vector 28 PolicyB.queue0 "processing time with client order" ETV
attr interpolationmode none
vector 29 PolicyB.queue6 "processing time with client order" ETV
attr interpolationmode none
0	2	0	0
0	29	167.39	0
0	97	354.57	0
0	150	677.374	0
0	171	805.189	0
0	225	1073.269	0
0	286	1312.669	0
0	430	1794.546	0
0	553	2323.619	0
0	595	2459.922	0
0	674	2674.245	0
0	754	3016.719	0
0	800	3227.342	0
0	952	3863.948	0
0	988	3959.238	0
0	1030	4046.457	0
0	1118	4358.593	0
0	1162	4554.822	0
0	1188	4662.561	0
0	1296	5010.481	0
0	1328	5118.631	0
0	1351	5222.018	72.001
0	1423	5461.645	0
0	1458	5540.563	0
0	1473	5576.833	29.915
0	1545	5761.842	0
0	1632	6228.689	0
0	1699	6445.225	0
0	1732	6595.838	0
0	1870	7166.229	0
0	1928	7316.091	0
0	2037	7706.532	0
0	2072	7809.291	0
0	2114	8102.468	0
0	2272	8927.098	0
0	2333	9177.318	0
0	2380	9362.622	0
0	2390	9408.494	0
0	2414	9471.113	0
0	2443	9612.358	0
0	2474	9748.743	0
0	2554	10204.181	0
0	2602	10367.718	69.7
0	2797	11203.538	0
0	2836	11333.861	0
0	2854	11381.78	0
0	2934	11730.027	0
0	3007	12094.345	0
0	3105	12292.526	0
0	3145	12440.807	0
0	3405	13561.091	0
0	3463	13800.04	0
0	3531	14003.97	0
0	3632	14456.545	0
0	3688	14769.572	0
0	3795	15254.336	0
0	3884	15826.403	0
0	3919	16010.137	0
0	4017	16279.674	0
0	4304	17750.668	0
0	4406	18305.396	0
0	4465	18647.026	0
0	4549	19089.017	0
0	4638	19368.081	0
0	4687	19624.565	0
0	4801	20080.886	0
0	4846	20370.94	0
0	5009	20974.086	0
0	5043	21078.33	0
0	5103	21618.948	0
0	5174	21863.249	59.596
0	5253	22139.412	0
0	5300	22261.781	0
0	5352	22440.643	0
0	5367	22565.558	0
0	5392	22640.603	0
0	5414	22727.695	0
0	5440	22821.574	0
0	5474	22926.363	0
0	5514	23093.864	0
0	5555	23220.266	0
0	5620	23528.273	0
0	5660	23642.54	0
0	5728	23899.453	0
0	5792	24133.398	0
0	5893	24670.413	0
0	5979	24915.758	0
0	6038	25106.65	0
0	6082	25306.504	0
0	6153	25663.334	0
0	6202	25793.647	0
0	6270	25992.689	109.072
0	6292	26094.128	0
0	6380	26442.037	0
0	6476	26928.563	0
0	6555	27351.265	0
0	6628	27632.806	0
0	6659	27695.183	0
0	6678	27743.024	0
0	6694	27774.639	12.97
0	6736	27941.404	0
0	6770	28039.099	0
0	6834	28409.233	0
0	6870	28545.093	0
0	6964	28805.389	0
0	7065	29162.227	0
0	7111	29587.137	0
0	7202	30111.83	0
0	7270	30392.981	0
0	7311	30563.071	0
0	7389	30990.191	0
0	7440	31274.258	0
0	7483	31476.209	0
0	7622	32095.839	0
0	7657	32204.313	0
0	7725	32511.327	0
0	7832	33179.874	0
0	7842	33296.138	0
0	7889	33476.238	0
0	7947	33804.066	0
0	7961	33842.196	0
0	7994	34009.486	0
0	8031	34224.904	0
0	8071	34469.025	0
0	8113	34662.258	0
0	8164	34886.264	0
0	8193	35008.063	0
0	8297	35349.363	0
0	8329	35437.65	0
0	8361	35533.95	0
0	8405	35754.698	0
0	8475	36188.071	0
0	8561	36668.844	0
0	8627	36873.367	0
0	8664	37012.104	0
0	8715	37161.218	0
0	8817	37548.608	0
0	8891	37802.374	0
0	8915	37922.868	20.721
0	8965	38079.684	0
0	9032	38367.171	0
0	9082	38472.993	0
0	9103	38547.822	0
0	9206	38813.981	113.218
0	9334	39278.573	0
0	9393	39495.892	0
0	9487	39995.631	0
0	9505	40106.966	0
0	9574	40357.123	212.796
0	9637	40619.688	0
0	9677	40766.268	0
0	9755	41264.784	0
0	9826	41437.404	0
0	9851	41503.113	0
0	10000	42149.448	0
0	10031	42270.659	0
0	10190	42834.084	0
0	10243	43064.914	0
1	2	0	0
1	29	167.39	0
1	97	354.57	0
1	150	677.374	0
1	171	805.189	0
1	225	1073.269	0
1	286	1312.669	0
1	430	1794.546	0
1	553	2323.619	0
1	595	2459.922	0
1	674	2674.245	0
1	754	3016.719	0
1	800	3227.342	0
1	952	3863.948	0
1	988	3959.238	0
1	1030	4046.457	0
1	1118	4358.593	0
1	1162	4554.822	0
1	1188	4662.561	0
1	1296	5010.481	0
1	1328	5118.631	0
1	1336	5150.017	1
1	1351	5222.018	0
1	1423	5461.645	0
1	1458	5540.563	0
1	1461	5546.918	1
1	1473	5576.833	0
1	1545	5761.842	0
1	1632	6228.689	0
1	1699	6445.225	0
1	1732	6595.838	0
1	1870	7166.229	0
1	1928	7316.091	0
1	2037	7706.532	0
1	2072	7809.291	0
1	2114	8102.468	0
1	2272	8927.098	0
1	2333	9177.318	0
1	2380	9362.622	0
1	2390	9408.494	0
1	2414	9471.113	0
1	2443	9612.358	0
1	2474	9748.743	0
1	2554	10204.181	0
1	2577	10298.018	1
1	2602	10367.718	0
1	2797	11203.538	0
1	2836	11333.861	0
1	2854	11381.78	0
1	2934	11730.027	0
1	3007	12094.345	0
1	3105	12292.526	0
1	3145	12440.807	0
1	3405	13561.091	0
1	3463	13800.04	0
1	3531	14003.97	0
1	3632	14456.545	0
1	3688	14769.572	0
1	3795	15254.336	0
1	3884	15826.403	0
1	3919	16010.137	0
1	4017	16279.674	0
1	4304	17750.668	0
1	4406	18305.396	0
1	4465	18647.026	0
1	4549	19089.017	0
1	4638	19368.081	0
1	4687	19624.565	0
1	4801	20080.886	0
1	4846	20370.94	0
1	5009	20974.086	0
1	5043	21078.33	0
1	5103	21618.948	0
1	5156	21803.653	1
1	5174	21863.249	0
1	5253	22139.412	0
1	5300	22261.781	0
1	5352	22440.643	0
1	5367	22565.558	0
1	5392	22640.603	0
1	5414	22727.695	0
1	5440	22821.574	0
1	5474	22926.363	0
1	5514	23093.864	0
1	5555	23220.266	0
1	5620	23528.273	0
1	5660	23642.54	0
1	5728	23899.453	0
1	5792	24133.398	0
1	5893	24670.413	0
1	5979	24915.758	0
1	6038	25106.65	0
1	6082	25306.504	0
1	6153	25663.334	0
1	6202	25793.647	0
1	6230	25883.617	1
1	6270	25992.689	0
1	6292	26094.128	0
1	6380	26442.037	0
1	6476	26928.563	0
1	6555	27351.265	0
1	6628	27632.806	0
1	6659	27695.183	0
1	6678	27743.024	0
1	6688	27761.669	1
1	6694	27774.639	0
1	6736	27941.404	0
1	6770	28039.099	0
1	6834	28409.233	0
1	6870	28545.093	0
1	6964	28805.389	0
1	7065	29162.227	0
1	7111	29587.137	0
1	7202	30111.83	0
1	7270	30392.981	0
1	7311	30563.071	0
1	7389	30990.191	0
1	7440	31274.258	0
1	7483	31476.209	0
1	7622	32095.839	0
1	7657	32204.313	0
1	7725	32511.327	0
1	7832	33179.874	0
1	7842	33296.138	0
1	7889	33476.238	0
1	7947	33804.066	0
1	7961	33842.196	0
1	7994	34009.486	0
1	8031	34224.904	0
1	8071	34469.025	0
1	8113	34662.258	0
1	8164	34886.264	0
1	8193	35008.063	0
1	8297	35349.363	0
1	8329	35437.65	0
1	8361	35533.95	0
1	8405	35754.698	0
1	8475	36188.071	0
1	8561	36668.844	0
1	8627	36873.367	0
1	8664	37012.104	0
1	8715	37161.218	0
1	8817	37548.608	0
1	8891	37802.374	0
1	8910	37902.147	1
1	8915	37922.868	0
1	8965	38079.684	0
1	9032	38367.171	0
1	9082	38472.993	0
1	9103	38547.822	0
1	9154	38700.763	1
1	9206	38813.981	0
1	9334	39278.573	0
1	9393	39495.892	0
1	9487	39995.631	0
1	9505	40106.966	0
1	9512	40144.327	1
1	9574	40357.123	0
1	9637	40619.688	0
1	9677	40766.268	0
1	9755	41264.784	0
1	9826	41437.404	0
1	9851	41503.113	0
1	10000	42149.448	0
1	10031	42270.659	0
1	10190	42834.084	0
1	10243	43064.914	0
2	5	4.261	0
2	26	163.859	0
2	119	494.225	0
2	182	870.845	0
2	283	1291.185	0
2	403	1716.642	0
2	452	1927.016	0
2	486	2137.701	0
2	660	2654.13	0
2	812	3313.718	0
2	829	3355.878	0
2	868	3497.57	0
2	882	3537.319	0
2	908	3676.29	0
2	967	3913.64	24.247
2	1153	4516.017	0
2	1236	4764.845	0
2	1311	5049.621	0
2	1417	5443.247	0
2	1541	5750.019	0
2	1579	5931.831	0
2	1620	6169.128	0
2	1696	6437.809	0
2	1758	6723.628	0
2	1840	7076.211	0
2	1885	7186.872	0
2	1922	7303.396	0
2	1956	7450.915	0
2	2002	7569.105	0
2	2040	7708.824	0
2	2106	8036.418	0
2	2238	8801.534	0
2	2288	9016.942	0
2	2423	9498.216	0
2	2486	9816.085	0
2	2557	10220.421	0
2	2614	10402.538	0
2	2649	10517.034	0
2	2704	10715.159	0
2	2727	10765.684	0
2	2778	11173.802	0
2	2818	11253.32	0
2	2920	11656.118	0
2	2982	12001.815	0
2	3028	12156.924	0
2	3054	12188.196	0
2	3188	12550.072	119.208
2	3331	13231.939	0
2	3424	13675.552	0
2	3476	13851.492	0
2	3557	14067.896	0
2	3619	14355.075	0
2	3668	14698.527	0
2	3730	14967.805	0
2	3763	15122.966	0
2	3777	15159.573	0
2	3827	15372.006	0
2	3925	16024.296	0
2	3955	16113.347	0
2	4011	16268.308	0
2	4084	16494.419	0
2	4118	16753.911	0
2	4160	16953.721	0
2	4241	17365.766	0
2	4261	17520.381	0
2	4356	17965.539	0
2	4395	18196.828	0
2	4455	18623.698	0
2	4479	18686.412	0
2	4559	19132.255	0
2	4609	19283.112	0
2	4648	19403.431	0
2	4667	19513.169	0
2	4709	19735.314	0
2	4757	19935.629	0
2	4852	20391.808	0
2	4880	20477.111	0
2	4907	20580.23	0
2	4936	20698.521	0
2	5039	21066.376	0
2	5110	21649.07	0
2	5146	21786.346	0
2	5209	22004.503	0
2	5249	22131.989	0
2	5276	22197.621	0
2	5327	22336.042	0
2	5404	22663.214	0
2	5477	22931.008	0
2	5583	23383.997	0
2	5647	23595.29	0
2	5711	23833.613	0
2	5754	24013.714	0
2	5875	24475.024	0
2	5902	24675.603	0
2	5929	24740.743	0
2	5967	24872.437	0
2	6003	24975.061	0
2	6030	25075.004	0
2	6079	25296.086	0
2	6129	25562.061	0
2	6198	25793.089	54.808
2	6302	26104.138	0
2	6415	26693.048	0
2	6530	27207.594	0
2	6544	27292.345	0
2	6583	27468.204	0
2	6685	27760.916	0
2	6743	27959.912	0
2	6808	28256.374	0
2	6891	28585.593	0
2	6932	28701.193	0
2	7058	29150.528	0
2	7171	29926.575	0
2	7221	30207.669	0
2	7392	30997.905	0
2	7421	31221.501	0
2	7477	31450.347	0
2	7511	31549.337	0
2	7608	32004.267	0
2	7630	32141.658	0
2	7703	32405.422	0
2	7864	33388.968	0
2	8001	34022.64	0
2	8081	34522.964	0
2	8129	34742.143	0
2	8190	35003.788	0
2	8205	35069.996	0
2	8377	35609.648	0
2	8438	35862.367	0
2	8500	36295.671	0
2	8553	36589.137	0
2	8588	36750.74	0
2	8616	36851.917	0
2	8685	37094.176	0
2	8734	37218.824	0
2	8792	37466.002	0
2	8845	37686.999	0
2	8948	38010.944	203.255
2	9063	38440.788	23.411
2	9134	38663.795	0
2	9194	38796.011	0
2	9259	38951.878	0
2	9356	39385.506	0
2	9402	39530.322	0
2	9465	39885.657	0
2	9479	39946.851	0
2	9592	40407.55	0
2	9657	40716.759	0
2	9726	41054.777	0
2	9775	41312.218	0
2	9798	41364.656	0
2	9829	41446.245	0
2	9915	41721.177	0
2	9950	41943.165	0
2	10017	42196.296	0
2	10089	42437.175	0
2	10209	42933.833	0
3	5	4.261	0
3	26	163.859	0
3	119	494.225	0
3	182	870.845	0
3	283	1291.185	0
3	403	1716.642	0
3	452	1927.016	0
3	486	2137.701	0
3	660	2654.13	0
3	812	3313.718	0
3	829	3355.878	0
3	868	3497.57	0
3	882	3537.319	0
3	908	3676.29	0
3	962	3889.393	1
3	967	3913.64	0
3	1153	4516.017	0
3	1236	4764.845	0
3	1311	5049.621	0
3	1417	5443.247	0
3	1541	5750.019	0
3	1579	5931.831	0
3	1620	6169.128	0
3	1696	6437.809	0
3	1758	6723.628	0
3	1840	7076.211	0
3	1885	7186.872	0
3	1922	7303.396	0
3	1956	7450.915	0
3	2002	7569.105	0
3	2040	7708.824	0
3	2106	8036.418	0
3	2238	8801.534	0
3	2288	9016.942	0
3	2423	9498.216	0
3	2486	9816.085	0
3	2557	10220.421	0
3	2614	10402.538	0
3	2649	10517.034	0
3	2704	10715.159	0
3	2727	10765.684	0
3	2778	11173.802	0
3	2818	11253.32	0
3	2920	11656.118	0
3	2982	12001.815	0
3	3028	12156.924	0
3	3054	12188.196	0
3	3137	12430.864	1
3	3188	12550.072	0
3	3331	13231.939	0
3	3424	13675.552	0
3	3476	13851.492	0
3	3557	14067.896	0
3	3619	14355.075	0
3	3668	14698.527	0
3	3730	14967.805	0
3	3763	15122.966	0
3	3777	15159.573	0
3	3827	15372.006	0
3	3925	16024.296	0
3	3955	16113.347	0
3	4011	16268.308	0
3	4084	16494.419	0
3	4118	16753.911	0
3	4160	16953.721	0
3	4241	17365.766	0
3	4261	17520.381	0
3	4356	17965.539	0
3	4395	18196.828	0
3	4455	18623.698	0
3	4479	18686.412	0
3	4559	19132.255	0
3	4609	19283.112	0
3	4648	19403.431	0
3	4667	19513.169	0
3	4709	19735.314	0
3	4757	19935.629	0
3	4852	20391.808	0
3	4880	20477.111	0
3	4907	20580.23	0
3	4936	20698.521	0
3	5039	21066.376	0
3	5110	21649.07	0
3	5146	21786.346	0
3	5209	22004.503	0
3	5249	22131.989	0
3	5276	22197.621	0
3	5327	22336.042	0
3	5404	22663.214	0
3	5477	22931.008	0
3	5583	23383.997	0
3	5647	23595.29	0
3	5711	23833.613	0
3	5754	24013.714	0
3	5875	24475.024	0
3	5902	24675.603	0
3	5929	24740.743	0
3	5967	24872.437	0
3	6003	24975.061	0
3	6030	25075.004	0
3	6079	25296.086	0
3	6129	25562.061	0
3	6172	25738.281	1
3	6198	25793.089	0
3	6302	26104.138	0
3	6415	26693.048	0
3	6530	27207.594	0
3	6544	27292.345	0
3	6583	27468.204	0
3	6685	27760.916	0
3	6743	27959.912	0
3	6808	28256.374	0
3	6891	28585.593	0
3	6932	28701.193	0
3	7058	29150.528	0
3	7171	29926.575	0
3	7221	30207.669	0
3	7392	30997.905	0
3	7421	31221.501	0
3	7477	31450.347	0
3	7511	31549.337	0
3	7608	32004.267	0
3	7630	32141.658	0
3	7703	32405.422	0
3	7864	33388.968	0
3	8001	34022.64	0
3	8081	34522.964	0
3	8129	34742.143	0
3	8190	35003.788	0
3	8205	35069.996	0
3	8377	35609.648	0
3	8438	35862.367	0
3	8500	36295.671	0
3	8553	36589.137	0
3	8588	36750.74	0
3	8616	36851.917	0
3	8685	37094.176	0
3	8734	37218.824	0
3	8792	37466.002	0
3	8845	37686.999	0
3	8894	37807.689	1
3	8948	38010.944	0
3	9060	38417.377	1
3	9063	38440.788	0
3	9134	38663.795	0
3	9194	38796.011	0
3	9259	38951.878	0
3	9356	39385.506	0
3	9402	39530.322	0
3	9465	39885.657	0
3	9479	39946.851	0
3	9592	40407.55	0
3	9657	40716.759	0
3	9726	41054.777	0
3	9775	41312.218	0
3	9798	41364.656	0
3	9829	41446.245	0
3	9915	41721.177	0
3	9950	41943.165	0
3	10017	42196.296	0
3	10089	42437.175	0
3	10209	42933.833	0
4	10	51.625	0
4	64	276.543	0
4	142	617.749	0
4	215	1007.359	0
4	298	1343.817	0
4	370	1583.663	190.753
4	468	2038.458	0
4	479	2110.885	0
4	545	2309.917	0
4	693	2717.696	0
4	748	2999.936	0
4	819	3336.415	0
4	915	3717.765	0
4	949	3862.974	0
4	981	3933.392	0
4	1039	4068.109	0
4	1133	4459.413	0
4	1212	4713.981	136.971
4	1255	4831.78	0
4	1279	4952.48	0
4	1299	5012.344	0
4	1403	5400.468	0
4	1519	5702.38	0
4	1735	6612.638	0
4	1768	6763.568	0
4	1858	7122.631	0
4	1996	7556.32	0
4	2043	7716.59	0
4	2152	8384.962	0
4	2181	8514.324	0
4	2203	8584.605	0
4	2226	8778.99	0
4	2258	8864.722	0
4	2313	9100.155	0
4	2387	9396.295	0
4	2471	9734.328	0
4	2551	10202.36	0
4	2625	10442.755	147.094
4	2699	10682.985	0
4	2770	11106.985	0
4	2812	11249.496	0
4	2906	11568.854	0
4	2969	11921.71	0
4	2988	12007.025	0
4	3089	12266.644	0
4	3174	12513.007	0
4	3243	12692.001	106.177
4	3293	12976.617	0
4	3341	13243.798	0
4	3395	13534.881	0
4	3441	13713.006	0
4	3528	13997.165	0
4	3639	14503.18	0
4	3671	14701.709	0
4	3782	15199.347	0
4	3824	15368.357	0
4	3870	15740.5	0
4	3916	16005.396	0
4	3938	16054.17	0
4	4001	16195.434	0
4	4060	16431.313	0
4	4105	16704.843	0
4	4167	16958.944	0
4	4280	17587.243	0
4	4322	17838.063	0
4	4379	18120.375	0
4	4445	18571.256	0
4	4555	19105.269	0
4	4590	19232.868	0
4	4660	19478.713	0
4	4739	19903.677	0
4	4793	20058.318	0
4	4833	20320.451	0
4	4872	20455.244	0
4	4985	20911.232	0
4	5021	20998.459	0
4	5125	21722.569	0
4	5178	21869.053	0
4	5225	22060.254	0
4	5287	22231.839	0
4	5324	22319.789	0
4	5398	22658.888	0
4	5482	22942.535	0
4	5537	23174.203	0
4	5567	23243.534	0
4	5579	23305.71	0
4	5594	23463.788	0
4	5664	23651.415	0
4	5816	24229.24	0
4	5869	24452.666	0
4	5922	24725.77	0
4	5970	24878.862	0
4	6006	24990.547	0
4	6060	25199.929	0
4	6166	25720.947	0
4	6295	26095.209	217.5
4	6412	26685.057	0
4	6612	27591.329	0
4	6635	27652.69	0
4	6749	27969.621	0
4	6797	28186.649	0
4	6874	28551.409	0
4	6929	28691.926	0
4	6951	28771.012	0
4	7029	29060.224	0
4	7122	29690.396	0
4	7206	30137.287	0
4	7235	30240.379	0
4	7314	30583.388	0
4	7403	31064.841	0
4	7451	31304.274	0
4	7529	31635.682	0
4	7572	31824.047	0
4	7616	32078.544	0
4	7660	32212.765	0
4	7690	32329.871	0
4	7763	32695.554	0
4	7853	33362.528	0
4	7966	33878.594	0
4	8028	34208.249	0
4	8125	34713.895	0
4	8171	34903.117	0
4	8252	35202.815	0
4	8340	35481.481	0
4	8401	35745.73	0
4	8469	36176.187	0
4	8653	36949.691	0
4	8677	37050.729	0
4	8701	37128.064	0
4	8799	37488.094	0
4	8830	37568.809	0
4	8876	37744.939	0
4	8903	37855.146	18.049
4	8942	37997.082	0
4	8989	38202.163	0
4	9035	38375.377	0
4	9074	38467.469	54.29
4	9124	38608.785	0
4	9197	38796.672	0
4	9297	39105.861	0
4	9323	39215.98	0
4	9396	39506.862	0
4	9431	39710.534	0
4	9533	40214.436	0
4	9719	41021.262	0
4	9808	41390.456	0
4	9861	41561.545	0
4	9991	42104.455	0
4	10047	42315.268	0
4	10103	42509.483	0
4	10237	43049.656	0
4	10272	43134.243	0
5	10	51.625	0
5	64	276.543	0
5	142	617.749	0
5	215	1007.359	0
5	298	1343.817	0
5	315	1392.91	1
5	370	1583.663	0
5	468	2038.458	0
5	479	2110.885	0
5	545	2309.917	0
5	693	2717.696	0
5	748	2999.936	0
5	819	3336.415	0
5	915	3717.765	0
5	949	3862.974	0
5	981	3933.392	0
5	1039	4068.109	0
5	1133	4459.413	0
5	1173	4577.01	1
5	1212	4713.981	0
5	1255	4831.78	0
5	1279	4952.48	0
5	1299	5012.344	0
5	1403	5400.468	0
5	1519	5702.38	0
5	1735	6612.638	0
5	1768	6763.568	0
5	1858	7122.631	0
5	1996	7556.32	0
5	2043	7716.59	0
5	2152	8384.962	0
5	2181	8514.324	0
5	2203	8584.605	0
5	2226	8778.99	0
5	2258	8864.722	0
5	2313	9100.155	0
5	2387	9396.295	0
5	2471	9734.328	0
5	2551	10202.36	0
5	2575	10295.661	1
5	2625	10442.755	0
5	2699	10682.985	0
5	2770	11106.985	0
5	2812	11249.496	0
5	2906	11568.854	0
5	2969	11921.71	0
5	2988	12007.025	0
5	3089	12266.644	0
5	3174	12513.007	0
5	3205	12585.824	1
5	3243	12692.001	0
5	3293	12976.617	0
5	3341	13243.798	0
5	3395	13534.881	0
5	3441	13713.006	0
5	3528	13997.165	0
5	3639	14503.18	0
5	3671	14701.709	0
5	3782	15199.347	0
5	3824	15368.357	0
5	3870	15740.5	0
5	3916	16005.396	0
5	3938	16054.17	0
5	4001	16195.434	0
5	4060	16431.313	0
5	4105	16704.843	0
5	4167	16958.944	0
5	4280	17587.243	0
5	4322	17838.063	0
5	4379	18120.375	0
5	4445	18571.256	0
5	4555	19105.269	0
5	4590	19232.868	0
5	4660	19478.713	0
5	4739	19903.677	0
5	4793	20058.318	0
5	4833	20320.451	0
5	4872	20455.244	0
5	4985	20911.232	0
5	5021	20998.459	0
5	5125	21722.569	0
5	5178	21869.053	0
5	5225	22060.254	0
5	5287	22231.839	0
5	5324	22319.789	0
5	5398	22658.888	0
5	5482	22942.535	0
5	5537	23174.203	0
5	5567	23243.534	0
5	5579	23305.71	0
5	5594	23463.788	0
5	5664	23651.415	0
5	5816	24229.24	0
5	5869	24452.666	0
5	5922	24725.77	0
5	5970	24878.862	0
5	6006	24990.547	0
5	6060	25199.929	0
5	6166	25720.947	0
5	6226	25877.709	1
5	6295	26095.209	0
5	6412	26685.057	0
5	6612	27591.329	0
5	6635	27652.69	0
5	6749	27969.621	0
5	6797	28186.649	0
5	6874	28551.409	0
5	6929	28691.926	0
5	6951	28771.012	0
5	7029	29060.224	0
5	7122	29690.396	0
5	7206	30137.287	0
5	7235	30240.379	0
5	7314	30583.388	0
5	7403	31064.841	0
5	7451	31304.274	0
5	7529	31635.682	0
5	7572	31824.047	0
5	7616	32078.544	0
5	7660	32212.765	0
5	7690	32329.871	0
5	7763	32695.554	0
5	7853	33362.528	0
5	7966	33878.594	0
5	8028	34208.249	0
5	8125	34713.895	0
5	8171	34903.117	0
5	8252	35202.815	0
5	8340	35481.481	0
5	8401	35745.73	0
5	8469	36176.187	0
5	8653	36949.691	0
5	8677	37050.729	0
5	8701	37128.064	0
5	8799	37488.094	0
5	8830	37568.809	0
5	8876	37744.939	0
5	8901	37837.097	1
5	8903	37855.146	0
5	8942	37997.082	0
5	8989	38202.163	0
5	9035	38375.377	0
5	9052	38413.179	1
5	9074	38467.469	0
5	9124	38608.785	0
5	9197	38796.672	0
5	9297	39105.861	0
5	9323	39215.98	0
5	9396	39506.862	0
5	9431	39710.534	0
5	9533	40214.436	0
5	9719	41021.262	0
5	9808	41390.456	0
5	9861	41561.545	0
5	9991	42104.455	0
5	10047	42315.268	0
5	10103	42509.483	0
5	10237	43049.656	0
5	10272	43134.243	0
6	14	98.562	98.562
6	47	232.105	64.715
6	136	609.41	254.84
6	164	750.659	73.285
6	205	991.434	186.245
6	270	1247.323	174.054
6	420	1767.266	454.597
6	507	2192.127	397.581
6	577	2424.684	101.065
6	657	2652.785	192.863
6	687	2704.868	30.623
6	789	3177.994	161.275
6	832	3365.322	137.98
6	985	3957.075	93.127
6	1012	3998.277	39.039
6	1091	4239.529	193.072
6	1159	4554.476	195.883
6	1184	4612.968	58.146
6	1208	4705.742	43.181
6	1321	5105.664	95.183
6	1351	5222.018	103.387
6	1377	5294.301	72.283
6	1454	5535.323	73.678
6	1473	5576.833	36.27
6	1535	5743.968	167.135
6	1575	5915.057	153.215
6	1654	6285.388	56.699
6	1719	6551.515	106.29
6	1785	6815.318	219.48
6	1908	7258.525	92.296
6	2008	7594.036	277.945
6	2062	7762.281	55.749
6	2084	7869.684	60.393
6	2174	8473.472	371.004
6	2310	9100.091	172.993
6	2363	9275.234	97.916
6	2384	9392.954	30.332
6	2404	9446.035	37.541
6	2437	9593.715	122.602
6	2467	9672.647	60.289
6	2510	10001.276	252.533
6	2602	10367.718	163.537
6	2754	10847.525	479.807
6	2824	11265.937	62.399
6	2851	11379.504	45.643
6	2893	11523.976	142.196
6	2997	12069.234	339.207
6	3098	12275.564	181.219
6	3139	12435.809	143.283
6	3223	12624.711	183.904
6	3447	13725.386	164.295
6	3525	13993.769	193.729
6	3622	14376.348	372.378
6	3636	14493.894	37.349
6	3700	14861.064	91.492
6	3830	15393.481	139.145
6	3900	15895.64	69.237
6	3949	16108.5	98.363
6	4063	16436.919	157.245
6	4359	17993.016	242.348
6	4424	18471.133	165.737
6	4491	18749.521	102.495
6	4626	19354.415	265.398
6	4678	19560.851	192.77
6	4775	19963.573	339.008
6	4816	20164.046	83.16
6	4973	20887.717	516.777
6	5030	21041.108	67.022
6	5057	21190.67	112.34
6	5174	21863.249	244.301
6	5222	22048.022	184.773
6	5296	22245.009	105.597
6	5315	22300.377	38.596
6	5363	22549.702	109.059
6	5387	22621.23	55.672
6	5409	22671.212	30.609
6	5426	22777.347	49.652
6	5461	22881.399	59.825
6	5507	23045.505	119.142
6	5530	23135.6	41.736
6	5604	23496.825	276.559
6	5631	23561.838	33.565
6	5705	23826.719	184.179
6	5762	24032.755	133.302
6	5859	24369.815	236.417
6	5945	24792.996	122.583
6	6026	25059.459	143.701
6	6051	25153.401	46.751
6	6108	25496.473	189.969
6	6185	25770.278	106.944
6	6270	25992.689	199.042
6	6289	26088.925	96.236
6	6367	26366.787	272.659
6	6445	26774.346	332.309
6	6541	27277.376	348.813
6	6598	27532.557	181.292
6	6650	27675.763	42.957
6	6672	27732.007	36.824
6	6694	27774.639	31.615
6	6726	27869.233	94.594
6	6766	28002.153	60.749
6	6821	28349.932	310.833
6	6857	28498.756	89.523
6	6942	28734.746	189.653
6	7024	29041.321	235.932
6	7077	29200.402	38.175
6	7168	29923.745	336.608
6	7256	30325.974	214.144
6	7301	30530.114	137.133
6	7369	30848.825	285.754
6	7431	31254.493	264.302
6	7471	31404.099	129.841
6	7522	31568.94	92.731
6	7633	32143.406	47.567
6	7706	32411.291	206.978
6	7755	32626.958	115.631
6	7836	33225.158	45.284
6	7868	33408.668	112.53
6	7914	33595.012	118.774
6	7955	33839.796	35.73
6	7973	33915.058	72.862
6	8008	34050.692	41.206
6	8068	34443.792	218.888
6	8110	34659.327	190.302
6	8146	34826.455	164.197
6	8187	34952.762	66.498
6	8290	35331.099	323.036
6	8323	35428.383	79.02
6	8353	35509.487	71.837
6	8384	35632.914	98.964
6	8422	35786.544	31.846
6	8512	36321.534	133.463
6	8576	36739.445	70.601
6	8661	36983.029	109.662
6	8694	37105.734	93.63
6	8806	37509.782	348.564
6	8870	37739.039	190.431
6	8915	37922.868	120.494
6	8961	38065.353	142.485
6	8995	38223.414	143.73
6	9079	38470.896	103.725
6	9090	38504.848	31.855
6	9206	38813.981	266.159
6	9311	39175.551	361.57
6	9359	39386.107	107.534
6	9409	39544.213	48.321
6	9502	40058.506	62.875
6	9574	40357.123	250.157
6	9618	40509.463	152.34
6	9669	40734.905	115.217
6	9722	41024.147	257.879
6	9812	41395.114	130.33
6	9845	41491.433	54.029
6	9961	41984.965	481.852
6	10021	42224.912	75.464
6	10180	42811.771	541.112
6	10232	43017.803	183.719
6	10265	43110.092	45.178
7	17	151.775	147.514
7	94	350.255	186.396
7	130	582.532	88.307
7	189	943.686	72.841
7	364	1579.664	288.479
7	427	1793.05	76.408
7	456	1970.63	43.614
7	580	2431.931	294.23
7	682	2701.363	47.233
7	826	3353.294	39.576
7	843	3394.537	38.659
7	873	3528.002	30.432
7	905	3658.374	121.055
7	967	3913.64	237.35
7	1143	4480.061	566.421
7	1224	4733.457	217.44
7	1302	5019.161	254.316
7	1397	5370.842	321.221
7	1522	5709.842	266.595
7	1560	5803.233	53.214
7	1614	6160.05	228.219
7	1644	6257.1	87.972
7	1755	6716.853	279.044
7	1793	6859.113	135.485
7	1861	7124.315	48.104
7	1915	7290.135	103.263
7	1953	7448.618	145.222
7	1982	7526.977	76.062
7	2012	7599.29	30.185
7	2066	7804.463	95.639
7	2146	8361.834	325.416
7	2285	9009.898	208.364
7	2326	9158.459	141.517
7	2458	9668.247	170.031
7	2504	9957.904	141.819
7	2588	10309.685	89.264
7	2639	10489.114	86.576
7	2689	10656.703	139.669
7	2721	10759.755	44.596
7	2761	10883.899	118.215
7	2804	11222.478	48.676
7	2875	11451.569	198.249
7	2931	11695.842	39.724
7	3025	12153.957	152.142
7	3051	12187.901	30.977
7	3188	12550.072	361.876
7	3271	12825.611	275.539
7	3399	13540.274	308.335
7	3460	13785.613	110.061
7	3547	14039.405	187.913
7	3594	14209.14	141.244
7	3629	14434.41	79.335
7	3681	14729.621	31.094
7	3757	15110.495	142.69
7	3774	15154.175	31.209
7	3807	15267.215	107.642
7	3867	15731.383	359.377
7	3945	16073.799	49.503
7	3997	16182.205	68.858
7	4081	16493.664	225.356
7	4096	16532.961	38.542
7	4137	16845.865	91.954
7	4179	17039.354	85.633
7	4251	17486.114	120.348
7	4288	17640.511	120.13
7	4366	18025.718	60.179
7	4399	18253.202	56.374
7	4469	18663.884	40.186
7	4498	18781.248	94.836
7	4593	19244.767	112.512
7	4641	19390.385	107.273
7	4657	19455.099	51.668
7	4675	19551.793	38.624
7	4723	19799.077	63.763
7	4779	19970.247	34.618
7	4877	20469.535	77.727
7	4898	20525.786	48.675
7	4926	20657.246	77.016
7	5005	20965.561	267.04
7	5054	21165.986	99.61
7	5142	21776.13	127.06
7	5200	21953.784	167.438
7	5239	22115.714	111.211
7	5270	22179.972	47.983
7	5321	22316.198	118.577
7	5401	22660.422	324.38
7	5464	22893.492	230.278
7	5520	23119.261	188.253
7	5607	23501.997	118
7	5657	23633.386	38.096
7	5742	23986.683	153.07
7	5813	24228.639	214.925
7	5884	24546.534	71.51
7	5925	24727.653	52.05
7	5954	24811.024	70.281
7	5982	24927.647	55.21
7	6013	25018.359	43.298
7	6041	25124.526	49.522
7	6101	25443.786	147.7
7	6198	25793.089	231.028
7	6266	25977.392	184.303
7	6358	26300.136	195.998
7	6511	27065.185	372.137
7	6537	27241.632	34.038
7	6572	27398.697	106.352
7	6669	27731.292	263.088
7	6714	27812.783	51.867
7	6804	28199.302	239.39
7	6877	28559.919	303.545
7	6912	28639.934	54.341
7	6979	28848.963	147.77
7	7094	29334.553	184.025
7	7199	30110.675	184.1
7	7317	30590.476	382.807
7	7411	31096.949	99.044
7	7467	31376.893	155.392
7	7495	31508.088	57.741
7	7569	31803.97	254.633
7	7619	32081.072	76.805
7	7671	32265.675	124.017
7	7732	32546.526	141.104
7	7917	33605.875	216.907
7	8022	34177.674	155.034
7	8099	34598.569	75.605
7	8184	34947.493	205.35
7	8201	35039.688	35.9
7	8286	35324.273	254.277
7	8425	35789.07	179.422
7	8447	35900.03	37.663
7	8519	36329.654	33.983
7	8579	36744.769	155.632
7	8613	36839.229	88.489
7	8670	37030.589	178.672
7	8708	37142.937	48.761
7	8786	37456.078	237.254
7	8833	37571.575	105.573
7	8948	38010.944	323.945
7	9063	38440.788	429.844
7	9093	38509.399	68.611
7	9167	38742.587	78.792
7	9223	38857.104	61.093
7	9288	39037.637	85.759
7	9380	39475.001	89.495
7	9438	39743.172	212.85
7	9476	39927.94	42.283
7	9563	40311.874	365.023
7	9607	40471.249	63.699
7	9692	40832.089	115.33
7	9737	41159.386	104.609
7	9795	41361.43	49.212
7	9820	41423.63	58.974
7	9882	41626.14	179.895
7	9940	41885.751	164.574
7	9982	42092.553	149.388
7	10057	42360.71	164.414
7	10168	42793.862	356.687
7	10219	42978.18	44.347
8	20	162.788	0
8	161	727.387	0
8	212	1003.219	0
8	249	1161.885	0
8	310	1376.281	0
8	343	1503.582	0
8	396	1679.161	0
8	424	1783.075	0
8	514	2221.995	0
8	558	2358.298	0
8	620	2528.444	0
8	651	2631.233	0
8	697	2765.244	0
8	721	2896.313	0
8	793	3198.572	0