version 2
run General-0-20220624-05:29:28-23484
attr configname General
attr datetime 20220624-05:29:28
attr experiment General
attr inifile omnetpp.ini
attr iterationvars $0=879
attr iterationvarsf 879-
attr measurement $0=879
attr network PolicyB
attr processid 23484
attr repetition 0
attr replication #0
attr resultdir results
attr runnumber 0
attr seedset 879

vector 0 PolicyB.queue5 "time spent on the queue" ETV
attr interpolationmode none
vector 1 PolicyB.queue5 "queue size after modification" ETV
attr interpolationmode none
vector 2 PolicyB.queue3 "time spent on the queue" ETV
attr interpolationmode none
vector 3 PolicyB.queue3 "queue size after modification" ETV
attr interpolationmode none
vector 4 PolicyB.queue6 "time spent on the queue" ETV
attr interpolationmode none
vector 5 PolicyB.queue6 "queue size after modification" ETV
attr interpolationmode none
vector 6 PolicyB.queue5 "processing time with client order" ETV
attr interpolationmode none
vector 7 PolicyB.queue9 "time spent on the queue" ETV
attr interpolationmode none
vector 8 PolicyB.queue9 "queue size after modification" ETV
attr interpolationmode none
vector 9 PolicyB.queue4 "time spent on the queue" ETV
attr interpolationmode none
vector 10 PolicyB.queue4 "queue size after modification" ETV
attr interpolationmode none
vector 11 PolicyB.queue2 "time spent on the queue" ETV
attr interpolationmode none
vector 12 PolicyB.queue2 "queue size after modification" ETV
attr interpolationmode none
vector 13 PolicyB.queue8 "time spent on the queue" ETV
attr interpolationmode none
vector 14 PolicyB.queue8 "queue size after modification" ETV
attr interpolationmode none
vector 15 PolicyB.queue7 "time spent on the queue" ETV
attr interpolationmode none
vector 16 PolicyB.queue7 "queue size after modification" ETV
attr interpolationmode none
vector 17 PolicyB.queue1 "time spent on the queue" ETV
attr interpolationmode none
vector 18 PolicyB.queue1 "queue size after modification" ETV
attr interpolationmode none
vector 19 PolicyB.queue0 "time spent on the queue" ETV
attr interpolationmode none
vector 20 PolicyB.queue0 "queue size after modification" ETV
attr interpolationmode none
vector 21 PolicyB.queue6 "processing time with client order" ETV
attr interpolationmode none
vector 22 PolicyB.queue9 "processing time with client order" ETV
attr interpolationmode none
vector 23 PolicyB.queue8 "processing time with client order" ETV
attr interpolationmode none
vector 24 PolicyB.queue7 "processing time with client order" ETV
attr interpolationmode none
vector 25 PolicyB.queue3 "processing time with client order" ETV
attr interpolationmode none
vector 26 PolicyB.queue0 "processing time with client order" ETV
attr interpolationmode none
vector 27 PolicyB.queue2 "processing time with client order" ETV
attr interpolationmode none
vector 28 PolicyB.queue4 "processing time with client order" ETV
attr interpolationmode none
vector 29 PolicyB.queue1 "processing time with client order" ETV
attr interpolationmode none
0	2	0	0
0	57	191.099	0
0	183	566.01	0
0	275	1098.55	0
0	341	1343.548	0
0	368	1420.95	0
0	497	1805.776	103.741
0	565	2043.532	236.801
0	587	2088.341	34.17
0	685	2368.918	0
0	810	2803.612	0
0	869	3045.435	0
0	905	3135.262	0
0	941	3219.737	0
0	1159	3955.633	490.108
0	1277	4364.698	197.863
0	1328	4568.438	0
0	1355	4674.193	0
0	1496	5088.311	0
0	1550	5258.153	0
0	1647	5544.051	0
0	1691	5670.365	0
0	1854	6216.496	0
0	1915	6386.832	0
0	1991	6661.234	0
0	2134	7092.929	0
0	2239	7539.186	0
0	2344	7774.866	0
0	2441	8103.027	0
0	2499	8232.622	0
0	2523	8343.996	0
0	2582	8560.933	0
0	2633	8686.718	0
0	2712	8967.725	0
0	2799	9260.66	0
0	2891	9481.131	0
0	2949	9778.62	0
0	3193	10679.573	0
0	3258	10894.907	0
0	3280	10971.662	0
0	3303	11028.007	0
0	3452	11657.681	0
0	3500	11763.818	0
0	3824	12778.206	420.994
0	3982	13357.222	0
0	4064	13586.621	0
0	4162	13955.449	0
0	4288	14583.986	0
0	4374	14914.011	0
0	4406	15005.82	0
0	4448	15152.355	0
0	4567	15538.942	0
0	4690	16215.228	0
0	4838	16778.872	0
0	4878	16907.423	0
0	4924	16997.588	0
0	5055	17488.761	0
0	5099	17622.427	0
0	5249	17950.839	254.903
0	5438	18582.528	579.968
0	5464	18728.921	0
0	5565	19060.844	0
0	5596	19190.754	0
0	5648	19363.087	0
0	5705	19539.728	0
0	5777	19760.172	0
0	5896	20162.656	0
0	6147	20921.882	647.389
0	6194	21018.021	0
0	6220	21112.376	0
0	6276	21269.696	0
0	6386	21758.269	0
0	6556	22387.68	0
0	6843	23327.326	342.045
0	6880	23449.329	114.893
0	6945	23640.951	0
0	7150	24350.243	0
0	7166	24394.376	0
0	7258	24643.426	57.469
0	7327	24813.828	0
0	7416	24991.335	151.343
0	7484	25116.786	115.39
0	7546	25295.16	0
0	7599	25563.837	0
0	7631	25684.52	0
0	7683	25877.753	0
0	7744	26082.203	0
0	7796	26251.142	46.27
0	7980	26797.84	516.549
0	8085	27221.662	0
0	8120	27332.837	0
0	8215	27681.319	0
0	8265	27888.111	0
0	8314	28044.642	0
0	8474	28589.088	520.302
0	8591	28963.438	0
0	8629	29086.568	0
0	8679	29242.252	0
0	8837	29764.038	325.492
0	8908	30258.257	0
0	8928	30344.237	0
0	9064	30763.161	0
0	9089	30879.156	0
0	9203	31235.691	0
0	9318	31625.502	0
0	9412	32043.487	0
0	9461	32266.298	0
0	9486	32331.861	0
0	9526	32467.674	0
0	9682	32880.549	407.36
0	9794	33291.739	0
0	9971	33961.488	277.095
0	10195	34661.168	274.969
0	10430	35381.841	0
0	10462	35488.725	0
0	10523	35680.037	96.032
0	10668	36228.436	0
0	10718	36437.814	0
0	10753	36572.597	0
0	10809	36782.515	0
0	10895	37019.325	0
0	11025	37499.56	207.37
0	11232	38071.98	0
0	11313	38428.172	0
0	11345	38513.26	0
0	11446	38804.718	0
0	11492	38950.742	0
0	11585	39264.91	0
0	11787	39904.84	0
0	11896	40353.171	0
0	11955	40568.852	0
0	12049	40890.62	0
0	12074	40986.769	0
0	12192	41441.276	0
0	12209	41481.645	0
0	12322	41773.398	0
0	12403	42075.305	0
0	12442	42145.639	0
0	12530	42426.672	0
0	12623	42766.098	0
0	12654	42863.829	0
1	2	0	0
1	57	191.099	0
1	183	566.01	0
1	275	1098.55	0
1	341	1343.548	0
1	368	1420.95	0
1	468	1702.035	1
1	497	1805.776	0
1	501	1806.731	1
1	565	2043.532	0
1	573	2054.171	1
1	587	2088.341	0
1	685	2368.918	0
1	810	2803.612	0
1	869	3045.435	0
1	905	3135.262	0
1	941	3219.737	0
1	1017	3465.525	1
1	1159	3955.633	0
1	1226	4166.835	1
1	1277	4364.698	0
1	1328	4568.438	0
1	1355	4674.193	0
1	1496	5088.311	0
1	1550	5258.153	0
1	1647	5544.051	0
1	1691	5670.365	0
1	1854	6216.496	0
1	1915	6386.832	0
1	1991	6661.234	0
1	2134	7092.929	0
1	2239	7539.186	0
1	2344	7774.866	0
1	2441	8103.027	0
1	2499	8232.622	0
1	2523	8343.996	0
1	2582	8560.933	0
1	2633	8686.718	0
1	2712	8967.725	0
1	2799	9260.66	0
1	2891	9481.131	0
1	2949	9778.62	0
1	3193	10679.573	0
1	3258	10894.907	0
1	3280	10971.662	0
1	3303	11028.007	0
1	3452	11657.681	0
1	3500	11763.818	0
1	3703	12357.212	1
1	3824	12778.206	0
1	3982	13357.222	0
1	4064	13586.621	0
1	4162	13955.449	0
1	4288	14583.986	0
1	4374	14914.011	0
1	4406	15005.82	0
1	4448	15152.355	0
1	4567	15538.942	0
1	4690	16215.228	0
1	4838	16778.872	0
1	4878	16907.423	0
1	4924	16997.588	0
1	5055	17488.761	0
1	5099	17622.427	0
1	5129	17695.936	1
1	5249	17950.839	0
1	5268	18002.56	1
1	5438	18582.528	0
1	5464	18728.921	0
1	5565	19060.844	0
1	5596	19190.754	0
1	5648	19363.087	0
1	5705	19539.728	0
1	5777	19760.172	0
1	5896	20162.656	0
1	5944	20274.493	1
1	6147	20921.882	0
1	6194	21018.021	0
1	6220	21112.376	0
1	6276	21269.696	0
1	6386	21758.269	0
1	6556	22387.68	0
1	6729	22985.281	1
1	6843	23327.326	0
1	6851	23334.436	1
1	6880	23449.329	0
1	6945	23640.951	0
1	7150	24350.243	0
1	7166	24394.376	0
1	7238	24585.957	1
1	7258	24643.426	0
1	7327	24813.828	0
1	7345	24839.992	1
1	7416	24991.335	0
1	7427	25001.396	1
1	7484	25116.786	0
1	7546	25295.16	0
1	7599	25563.837	0
1	7631	25684.52	0
1	7683	25877.753	0
1	7744	26082.203	0
1	7785	26204.872	1
1	7796	26251.142	0
1	7808	26281.291	1
1	7980	26797.84	0
1	8085	27221.662	0
1	8120	27332.837	0
1	8215	27681.319	0
1	8265	27888.111	0
1	8314	28044.642	0
1	8324	28068.786	1
1	8474	28589.088	0
1	8591	28963.438	0
1	8629	29086.568	0
1	8679	29242.252	0
1	8729	29438.546	1
1	8837	29764.038	0
1	8908	30258.257	0
1	8928	30344.237	0
1	9064	30763.161	0
1	9089	30879.156	0
1	9203	31235.691	0
1	9318	31625.502	0
1	9412	32043.487	0
1	9461	32266.298	0
1	9486	32331.861	0
1	9526	32467.674	0
1	9530	32473.189	1
1	9682	32880.549	0
1	9794	33291.739	0
1	9897	33684.393	1
1	9971	33961.488	0
1	10123	34386.199	1
1	10195	34661.168	0
1	10430	35381.841	0
1	10462	35488.725	0
1	10497	35584.005	1
1	10523	35680.037	0
1	10668	36228.436	0
1	10718	36437.814	0
1	10753	36572.597	0
1	10809	36782.515	0
1	10895	37019.325	0
1	10969	37292.19	1
1	11025	37499.56	0
1	11232	38071.98	0
1	11313	38428.172	0
1	11345	38513.26	0
1	11446	38804.718	0
1	11492	38950.742	0
1	11585	39264.91	0
1	11787	39904.84	0
1	11896	40353.171	0
1	11955	40568.852	0
1	12049	40890.62	0
1	12074	40986.769	0
1	12192	41441.276	0
1	12209	41481.645	0
1	12322	41773.398	0
1	12403	42075.305	0
1	12442	42145.639	0
1	12530	42426.672	0
1	12623	42766.098	0
1	12654	42863.829	0
2	6	46.17	0
2	106	371.767	0
2	257	1036.897	0
2	307	1179.762	0
2	376	1441.473	0
2	464	1690.276	0
2	698	2399.097	554.795
2	813	2804.804	0
2	837	2935.144	0
2	1140	3886.534	197.088
2	1177	4013.843	0
2	1457	4996.709	0
2	1547	5253.742	0
2	1584	5343.05	0
2	1612	5424.384	0
2	1627	5503.62	76.489
2	1797	6049.611	0
2	1829	6118.588	0
2	1867	6252.811	0
2	1897	6345.841	0
2	1974	6568.047	0
2	2040	6799.222	0
2	2112	7045.53	0
2	2184	7266.34	0
2	2228	7466.188	0
2	2351	7789.58	0
2	2542	8401.565	0
2	2594	8578.348	0
2	2671	8833.114	0
2	2740	9058.667	0
2	2806	9275.988	0
2	2840	9351.886	0
2	2952	9800.405	0
2	3066	10205.944	0
2	3167	10587.898	0
2	3219	10787.557	0
2	3314	11122.913	0
2	3395	11426.214	0
2	3484	11735.09	0
2	3537	11878.837	0
2	3603	12081.836	0
2	3655	12191.267	0
2	3754	12557.437	16.038
2	4005	13406.424	169.195
2	4102	13731.076	0
2	4168	13958.512	0
2	4216	14150.041	0
2	4301	14619.045	0
2	4472	15266.892	643.051
2	4517	15381.961	0
2	4595	15643.502	0
2	4723	16336.141	0
2	4760	16487.849	0
2	4869	16877.155	0
2	4937	17053.724	0
2	5058	17500.8	0
2	5117	17668.433	0
2	5165	17772.141	0
2	5284	18081.078	196.037
2	5497	18839.501	0
2	5599	19194.853	0
2	5683	19471.685	0
2	5874	20079.024	0
2	5907	20192.532	0
2	6001	20455.609	227.328
2	6048	20593.467	7.027
2	6098	20745.33	117.202
2	6206	21056.658	0
2	6266	21255.899	0
2	6372	21650.895	0
2	6414	21842.171	0
2	6799	23202.1	0
2	6833	23305.151	0
2	6995	23874.248	0
2	7133	24287.257	55.165
2	7174	24437.919	0
2	7243	24590.358	0
2	7412	24990.266	249.164
2	7468	25082.396	0
2	7542	25284.433	0
2	7606	25570.394	0
2	8006	26887.081	533.552
2	8056	27143.541	0
2	8079	27217.104	0
2	8246	27811.86	0
2	8285	27969.229	0
2	8604	28989.345	0
2	8752	29485.939	0
2	8799	29644.526	0
2	8900	30226.347	0
2	8994	30486.946	0
2	9060	30754.875	235.378
2	9076	30843.986	0
2	9139	31020.258	0
2	9159	31133.035	0
2	9188	31202.825	0
2	9226	31296.143	0
2	9310	31594.627	0
2	9448	32233.702	0
2	9483	32330.261	0
2	9621	32702.937	125.094
2	9653	32821.48	111.374
2	9716	33039.554	0
2	9877	33598.946	0
2	9944	33888.674	0
2	9995	34002.804	112.195
2	10206	34687.135	645.823
2	10232	34776.932	0
2	10316	34998.339	0
2	10379	35178.664	104.854
2	10490	35573.233	250.673
2	10568	35883.273	0
2	10721	36438.312	0
2	10797	36740.57	123.44
2	11032	37519.539	0
2	11106	37738.821	0
2	11134	37786.956	0
2	11193	37956.946	0
2	11260	38226.738	0
2	11400	38653.903	0
2	11469	38889.478	61.699
2	11588	39267.564	0
2	11912	40441.064	1046.765
2	12059	40957.074	0
2	12139	41216.566	214.255
2	12181	41410.822	0
2	12232	41538.343	8.352
2	12271	41616.036	0
2	12297	41690.48	0
2	12347	41837.881	0
2	12409	42093.64	0
2	12500	42308.417	0
2	12519	42376.953	0
2	12536	42437.981	0
2	12581	42606.822	0
2	12663	42896.134	0
2	12690	43002.146	0
3	6	46.17	0
3	106	371.767	0
3	257	1036.897	0
3	307	1179.762	0
3	376	1441.473	0
3	464	1690.276	0
3	508	1844.302	1
3	698	2399.097	0
3	813	2804.804	0
3	837	2935.144	0
3	1079	3689.446	1
3	1140	3886.534	0
3	1177	4013.843	0
3	1457	4996.709	0
3	1547	5253.742	0
3	1584	5343.05	0
3	1612	5424.384	0
3	1616	5427.131	1
3	1627	5503.62	0
3	1797	6049.611	0
3	1829	6118.588	0
3	1867	6252.811	0
3	1897	6345.841	0
3	1974	6568.047	0
3	2040	6799.222	0
3	2112	7045.53	0
3	2184	7266.34	0
3	2228	7466.188	0
3	2351	7789.58	0
3	2542	8401.565	0
3	2594	8578.348	0
3	2671	8833.114	0
3	2740	9058.667	0
3	2806	9275.988	0
3	2840	9351.886	0
3	2952	9800.405	0
3	3066	10205.944	0
3	3167	10587.898	0
3	3219	10787.557	0
3	3314	11122.913	0
3	3395	11426.214	0
3	3484	11735.09	0
3	3537	11878.837	0
3	3603	12081.836	0
3	3655	12191.267	0
3	3747	12541.399	1
3	3754	12557.437	0
3	3954	13237.229	1
3	4005	13406.424	0
3	4102	13731.076	0
3	4168	13958.512	0
3	4216	14150.041	0
3	4301	14619.045	0
3	4307	14623.841	1
3	4472	15266.892	0
3	4517	15381.961	0
3	4595	15643.502	0
3	4723	16336.141	0
3	4760	16487.849	0
3	4869	16877.155	0
3	4937	17053.724	0
3	5058	17500.8	0
3	5117	17668.433	0
3	5165	17772.141	0
3	5219	17885.041	1
3	5284	18081.078	0
3	5497	18839.501	0
3	5599	19194.853	0
3	5683	19471.685	0
3	5874	20079.024	0
3	5907	20192.532	0
3	5924	20228.281	1
3	6001	20455.609	0
3	6042	20586.44	1
3	6048	20593.467	0
3	6062	20628.128	1
3	6098	20745.33	0
3	6206	21056.658	0
3	6266	21255.899	0
3	6372	21650.895	0
3	6414	21842.171	0
3	6799	23202.1	0
3	6833	23305.151	0
3	6995	23874.248	0
3	7111	24232.092	1
3	7133	24287.257	0
3	7174	24437.919	0
3	7243	24590.358	0
3	7296	24741.102	1
3	7412	24990.266	0
3	7468	25082.396	0
3	7542	25284.433	0
3	7606	25570.394	0
3	7826	26353.529	1
3	8006	26887.081	0
3	8056	27143.541	0
3	8079	27217.104	0
3	8246	27811.86	0
3	8285	27969.229	0
3	8604	28989.345	0
3	8752	29485.939	0
3	8799	29644.526	0
3	8900	30226.347	0
3	8994	30486.946	0
3	9007	30519.497	1
3	9060	30754.875	0
3	9076	30843.986	0
3	9139	31020.258	0
3	9159	31133.035	0
3	9188	31202.825	0
3	9226	31296.143	0
3	9310	31594.627	0
3	9448	32233.702	0
3	9483	32330.261	0
3	9569	32577.843	1
3	9621	32702.937	0
3	9627	32710.106	1
3	9653	32821.48	0
3	9716	33039.554	0
3	9877	33598.946	0
3	9944	33888.674	0
3	9947	33890.609	1
3	9995	34002.804	0
3	10020	34041.312	1
3	10206	34687.135	0
3	10232	34776.932	0
3	10316	34998.339	0
3	10354	35073.81	1
3	10379	35178.664	0
3	10412	35322.56	1
3	10490	35573.233	0
3	10568	35883.273	0
3	10721	36438.312	0
3	10766	36617.13	1
3	10797	36740.57	0
3	11032	37519.539	0
3	11106	37738.821	0
3	11134	37786.956	0
3	11193	37956.946	0
3	11260	38226.738	0
3	11400	38653.903	0
3	11451	38827.779	1
3	11469	38889.478	0
3	11588	39267.564	0
3	11649	39394.299	1
3	11912	40441.064	0
3	12059	40957.074	0
3	12083	41002.311	1
3	12139	41216.566	0
3	12181	41410.822	0
3	12230	41529.991	1
3	12232	41538.343	0
3	12271	41616.036	0
3	12297	41690.48	0
3	12347	41837.881	0
3	12409	42093.64	0
3	12500	42308.417	0
3	12519	42376.953	0
3	12536	42437.981	0
3	12581	42606.822	0
3	12663	42896.134	0
3	12690	43002.146	0
4	9	50.314	0
4	54	184.423	0
4	109	387.184	0
4	154	504.622	0
4	234	917.819	0
4	337	1307.263	0
4	427	1597.293	0
4	634	2195.906	573.342
4	702	2401.532	163.32
4	725	2477.509	0
4	755	2570.798	0
4	854	2979.604	0
4	891	3108.355	0
4	932	3201.554	0
4	986	3341.403	0
4	1136	3885.745	441.945
4	1304	4458.749	144.561
4	1335	4591.541	0
4	1411	4847.935	73.909
4	1492	5088.215	116.784
4	1578	5329.108	0
4	1596	5392.999	0
4	1644	5542.625	0
4	1752	5882.319	0
4	1788	6002.944	0
4	1947	6469.166	0
4	2086	6936.656	0
4	2106	7042.686	0
4	2297	7659.121	0
4	2373	7853.848	0
4	2503	8263.799	0
4	2825	9317.897	0
4	2933	9702.678	0
4	3106	10376.502	0
4	3434	11625.425	1094.787
4	3540	11882.102	0
4	3626	12146.147	0
4	3804	12722.881	495.995
4	3904	13072.711	336.096
4	3925	13130.062	0
4	3985	13359.346	0
4	4043	13530.953	0
4	4124	13771.33	0
4	4291	14601.834	0
4	4494	15325.077	0
4	4656	15868.213	437.643
4	4861	16849.144	0
4	4957	17114.445	0
4	5109	17645.029	444.341
4	5226	17895.263	84.535
4	5315	18161.1	163.773
4	5362	18295.5	0
4	5454	18704.491	359.15
4	5538	18969.905	0
4	5664	19391.309	0
4	5699	19531.405	0
4	5798	19829.864	164.162
4	5821	19881.258	0
4	5899	20168.033	0
4	6200	21041.375	433.491
4	6259	21227.462	169.642
4	6317	21418.8	0
4	6421	21870.767	0
4	6589	22525.235	0
4	6650	22719.293	0
4	6731	22991.211	210.123
4	6802	23204.216	0
4	6926	23620.358	0
4	7009	23911.615	0
4	7063	24069.807	0
4	7120	24240.986	0
4	7291	24721.881	447.68
4	7400	24952.432	18.388
4	7666	25832.488	0
4	7692	25891.635	0
4	7814	26302.939	0
4	8016	26978.988	0
4	8059	27148.907	0
4	8110	27315.339	0
4	8155	27473.426	0
4	8201	27629.79	0
4	8262	27872.118	0
4	8321	28061.863	0
4	8447	28529.212	61.18
4	8492	28663.772	0
4	8601	28975.66	0
4	8656	29197.061	0
4	8759	29510.533	196.835
4	8771	29565.656	0
4	8859	29927.76	315.178
4	8938	30372.316	0
4	9086	30876.474	0
4	9125	30982.026	0
4	9223	31290.229	0
4	9297	31574.437	0
4	9348	31693.891	35.245
4	9433	32158.663	0
4	9539	32498.972	151.132
4	9600	32645.513	21.274
4	9661	32835.862	0
4	9708	33007.043	0
4	9731	33085.42	0
4	9885	33628.593	0
4	10006	34016.771	0
4	10176	34596.822	250.323
4	10247	34817.594	0
4	10334	35038.681	0
4	10391	35204.019	0
4	10406	35293.33	0
4	10451	35470.311	165.939
4	10530	35691.612	0
4	10639	36160.6	0
4	10702	36404.798	0
4	10838	36848.088	0
4	10979	37339.166	392.983
4	11043	37550.454	0
4	11067	37618.005	0
4	11173	37920.162	0
4	11240	38122.32	0
4	11328	38440.299	0
4	11396	38638.53	47.256
4	11427	38772.484	0
4	11591	39271.035	0
4	11618	39334.628	8.122
4	11668	39452.17	0
4	11719	39677.95	0
4	11764	39836.194	0
4	11893	40344.736	0
4	12147	41224.398	563.749
4	12224	41516.25	0
4	12306	41732.905	134.205
4	12396	42025.242	0
4	12464	42220.712	0
4	12603	42731.544	0
4	12705	43042.943	0
5	9	50.314	0
5	54	184.423	0
5	109	387.184	0
5	154	504.622	0
5	234	917.819	0
5	337	1307.263	0
5	427	1597.293	0
5	434	1622.564	1
5	634	2195.906	0
5	650	2238.212	1
5	702	2401.532	0
5	725	2477.509	0
5	755	2570.798	0
5	854	2979.604	0
5	891	3108.355	0
5	932	3201.554	0
5	986	3341.403	0
5	1008	3443.8	1
5	1136	3885.745	0
5	1264	4314.188	1
5	1304	4458.749	0
5	1335	4591.541	0
5	1387	4774.026	1
5	1411	4847.935	0
5	1445	4971.431	1
5	1492	5088.215	0
5	1578	5329.108	0
5	1596	5392.999	0
5	1644	5542.625	0
5	1752	5882.319	0
5	1788	6002.944	0
5	1947	6469.166	0
5	2086	6936.656	0
5	2106	7042.686	0
5	2297	7659.121	0
5	2373	7853.848	0
5	2503	8263.799	0
5	2825	9317.897	0
5	2933	9702.678	0
5	3106	10376.502	0
5	3151	10530.638	1
5	3434	11625.425	0
5	3540	11882.102	0
5	3626	12146.147	0
5	3662	12226.886	1
5	3804	12722.881	0
5	3812	12736.615	1
5	3904	13072.711	0
5	3925	13130.062	0
5	3985	13359.346	0
5	4043	13530.953	0
5	4124	13771.33	0
5	4291	14601.834	0
5	4494	15325.077	0
5	4541	15430.57	1
5	4656	15868.213	0
5	4861	16849.144	0
5	4957	17114.445	0
5	4994	17200.688	1
5	5109	17645.029	0
5	5188	17810.728	1
5	5226	17895.263	0
5	5266	17997.327	1
5	5315	18161.1	0
5	5362	18295.5	0
5	5386	18345.341	1
5	5454	18704.491	0
5	5538	18969.905	0
5	5664	19391.309	0
5	5699	19531.405	0
5	5743	19665.702	1
5	5798	19829.864	0
5	5821	19881.258	0
5	5899	20168.033	0
5	6054	20607.884	1
5	6200	21041.375	0
5	6209	21057.82	1
5	6259	21227.462	0
5	6317	21418.8	0
5	6421	21870.767	0
5	6589	22525.235	0
5	6650	22719.293	0
5	6671	22781.088	1
5	6731	22991.211	0
5	6802	23204.216	0
5	6926	23620.358	0
5	7009	23911.615	0
5	7063	24069.807	0
5	7120	24240.986	0
5	7129	24274.201	1
5	7291	24721.881	0
5	7387	24934.044	1
5	7400	24952.432	0
5	7666	25832.488	0
5	7692	25891.635	0
5	7814	26302.939	0
5	8016	26978.988	0
5	8059	27148.907	0
5	8110	27315.339	0
5	8155	27473.426	0
5	8201	27629.79	0
5	8262	27872.118	0
5	8321	28061.863	0
5	8435	28468.032	1
5	8447	28529.212	0
5	8492	28663.772	0
5	8601	28975.66	0
5	8656	29197.061	0
5	8693	29313.698	1
5	8759	29510.533	0
5	8771	29565.656	0
5	8782	29612.582	1
5	8859	29927.76	0
5	8938	30372.316	0
5	9086	30876.474	0
5	9125	30982.026	0
5	9223	31290.229	0
5	9297	31574.437	0
5	9329	31658.646	1
5	9348	31693.891	0
5	9433	32158.663	0
5	9490	32347.84	1
5	9539	32498.972	0
5	9581	32624.239	1
5	9600	32645.513	0
5	9661	32835.862	0
5	9708	33007.043	0
5	9731	33085.42	0
5	9885	33628.593	0
5	10006	34016.771	0
5	10106	34346.499	1
5	10176	34596.822	0
5	10247	34817.594	0
5	10334	35038.681	0
5	10391	35204.019	0
5	10406	35293.33	0
5	10410	35304.372	1
5	10451	35470.311	0
5	10530	35691.612	0
5	10639	36160.6	0
5	10702	36404.798	0
5	10838	36848.088	0
5	10870	36946.183	1
5	10979	37339.166	0
5	11043	37550.454	0
5	11067	37618.005	0
5	11173	37920.162	0
5	11240	38122.32	0
5	11328	38440.299	0
5	11379	38591.274	1
5	11396	38638.53	0
5	11427	38772.484	0
5	11591	39271.035	0
5	11613	39326.506	1
5	11618	39334.628	0
5	11668	39452.17	0
5	11719	39677.95	0
5	11764	39836.194	0
5	11893	40344.736	0
5	11986	40660.649	1
5	12147	41224.398	0
5	12224	41516.25	0
5	12252	41598.7	1
5	12306	41732.905	0
5	12396	42025.242	0
5	12464	42220.712	0
5	12603	42731.544	0
5	12705	43042.943	0
6	12	52.867	52.867
6	167	517.277	326.178
6	237	918.01	352
6	330	1278.789	180.239
6	360	1404.12	60.572
6	497	1805.776	384.826
6	565	2043.532	237.756
6	587	2088.341	44.809
6	682	2363.879	275.538
6	769	2648.878	279.96
6	862	3007.069	203.457
6	902	3117.465	72.03
6	923	3168.362	33.1
6	1159	3955.633	735.896
6	1277	4364.698	409.065
6	1314	4471.053	106.355
6	1339	4599.876	31.438
6	1488	5086.633	412.44
6	1541	5230.025	141.714
6	1634	5511.756	253.603
6	1687	5667.474	123.423
6	1847	6156.34	485.975
6	1894	6320.647	104.151
6	1979	6609.178	222.346
6	2118	7050.706	389.472
6	2225	7425.755	332.826
6	2341	7765.228	226.042
6	2387	7890.546	115.68
6	2492	8214.596	111.569
6	2509	8272.95	40.328
6	2575	8527.582	183.586
6	2619	8641.913	80.98
6	2698	8929.866	243.148
6	2792	9243.556	275.831
6	2864	9405.275	144.615
6	2922	9652.324	171.193
6	3156	10539.799	761.179
6	3224	10808.824	129.251
6	3277	10959.125	64.218
6	3300	11003.797	32.135
6	3449	11656.172	628.165
6	3487	11751.69	94.009
6	3824	12778.206	1014.388
6	3961	13266.902	488.696
6	4028	13472.722	115.5
6	4115	13761.214	174.593
6	4203	14104.275	148.826
6	4327	14699.295	115.309
6	4392	14963.779	49.768
6	4424	15091.911	86.091
6	4551	15476.995	324.64
6	4652	15853.83	314.888
6	4803	16702.521	487.293
6	4874	16893.47	114.598
6	4917	16983.672	76.249
6	5036	17435.395	437.807
6	5092	17601.878	113.117
6	5249	17950.839	328.412
6	5438	18582.528	631.689
6	5458	18710.627	128.099
6	5527	18932.597	203.676
6	5576	19123.849	63.005
6	5621	19243.671	52.917
6	5702	19538.039	174.952
6	5774	19759.413	219.685
6	5803	19832.787	72.615
6	6147	20921.882	759.226
6	6170	20986.476	64.594
6	6217	21094.062	76.041
6	6241	21169.62	57.244
6	6365	21645.435	375.739
6	6553	22385.38	627.111
6	6843	23327.326	939.646
6	6880	23449.329	122.003
6	6939	23636.299	186.97
6	7147	24328.956	688.005
6	7163	24384.166	33.923
6	7258	24643.426	249.05
6	7324	24803.899	160.473
6	7416	24991.335	177.507
6	7484	25116.786	125.451
6	7518	25227.927	111.141
6	7595	25548.822	253.662
6	7616	25596.7	32.863
6	7677	25866.627	182.107
6	7722	26031.615	153.862
6	7796	26251.142	168.939
6	7980	26797.84	546.698
6	8075	27182.253	384.413
6	8096	27266.862	45.2
6	8212	27678.546	345.709
6	8250	27848.23	166.911
6	8307	28038.424	150.313
6	8474	28589.088	544.446
6	8543	28831.753	242.665
6	8611	28996.12	32.682
6	8652	29182.659	96.091
6	8837	29764.038	521.786
6	8887	30092.809	328.771
6	8915	30299.212	40.955
6	9044	30675.385	331.148
6	9079	30861.048	97.887
6	9198	31213.698	334.542
6	9307	31588.876	353.185
6	9363	31745.099	119.597
6	9422	32118.888	75.401
6	9480	32328.729	62.431
6	9522	32462.369	130.508
6	9682	32880.549	412.875
6	9762	33137.35	256.801
6	9971	33961.488	669.749
6	10195	34661.168	699.68
6	10420	35358.896	697.728
6	10448	35454.741	72.9
6	10523	35680.037	191.312
6	10620	36114.815	434.778
6	10680	36346.704	118.268
6	10750	36572.511	134.697
6	10805	36768.97	196.373
6	10888	36991.728	209.213
6	11025	37499.56	480.235
6	11223	38063.842	564.282
6	11304	38391.326	319.346
6	11342	38503.638	75.466
6	11442	38796.326	283.066
6	11481	38938.793	134.075
6	11544	39114.703	163.961
6	11757	39821.14	556.23
6	11883	40315.221	410.381
6	11922	40472.385	119.214
6	12032	40832.241	263.389
6	12071	40983.825	93.205
6	12126	41129.408	142.639
6	12206	41481.526	40.25
6	12310	41737.695	256.05
6	12390	41993.264	219.866
6	12426	42129.241	53.936
6	12509	42341.825	196.186
6	12566	42569.808	143.136
6	12639	42824.371	58.273
7	17	83.919	0
7	68	237.495	0
7	83	324.438	0
7	123	405.035	0
7	177	548.633	0
7	269	1085.171	0
7	345	1381.205	0
7	390	1493.787	0
7	407	1539.054	0
7	455	1662.353	0
7	493	1803.001	76.018
7	542	1982.336	139.306
7	598	2100.9	3.553
7	647	2234.022	0
7	671	2292.358	0
7	728	2481.715	0
7	791	2736.49	0
7	834	2927.885	0
7	894	3110.302	0
7	1002	3415.627	0
7	1030	3522.877	0
7	1073	3672.535	0
7	1117	3802.179	42.799
7	1180	4014.03	0
7	1202	4111.131	0
7	1230	4191.073	42.834
7	1288	4392.795	0
7	1325	4546.298	0
7	1378	4722.921	0
7	1399	4807.95	0
7	1415	4851.672	0
7	1441	4964.431	0
7	1480	5057.543	0
7	1528	5189.297	0
7	1544	5233.44	0
7	1605	5404.338	0
7	1694	5673.904	0
7	1719	5738.151	0
7	1758	5907.435	0
7	1800	6056.238	0
7	1857	6224.111	0
7	1911	6380.098	126.97
7	1971	6547.609	0
7	1998	6670.123	0
7	2031	6787.937	0
7	2080	6913.937	0
7	2142	7120.335	0
7	2166	7198.626	0
7	2204	7318.767	0
7	2232	7502.807	0
7	2257	7566.182	0
7	2277	7612.108	0
7	2323	7711.777	0
7	2370	7844.677	0
7	2429	8040.079	0
7	2451	8128.218	0
7	2530	8373.314	0
7	2560	8472.825	0
7	2601	8591.938	0
7	2665	8831.915	0
7	2708	8965.08	0
7	2760	9132.577	0
7	2814	9298.223	0
7	2904	9543.998	0
7	2930	9698.88	0
7	2965	9825.585	0
7	3001	9953.972	0
7	3031	10078.533	0
7	3057	10178.773	0
7	3078	10279.904	0
7	3120	10409.603	0
7	3137	10497.332	0
7	3205	10752.336	0
7	3255	10880.052	0
7	3317	11140.919	0
7	3338	11200.658	0
7	3369	11299.282	0
7	3390	11387.463	0
7	3409	11490.824	0
7	3427	11603.03	0
7	3551	11929.048	0
7	3576	12022.867	0
7	3623	12134.07	0
7	3683	12263.876	61.975
7	3722	12459.15	0
7	3736	12500.849	0
7	3766	12601.477	0
7	3792	12679.084	22.98
7	3819	12759.413	30.367
7	3861	12905.865	0
7	3913	13090.318	0
7	3945	13203.573	0
7	3970	13309.234	69.899
7	4046	13538.651	0
7	4084	13647.805	0
7	4141	13840.344	0
7	4186	14025.937	0
7	4223	14196.051	0
7	4298	14616.652	0
7	4333	14716.537	0
7	4371	14909.011	0
7	4417	15052.921	0
7	4433	15099.98	0
7	4459	15190.408	0
7	4498	15343.24	0
7	4534	15418.891	0
7	4570	15556.937	0
7	4602	15658.725	0
7	4641	15818.02	0
7	4730	16393.122	0
7	4748	16464.207	0
7	4789	16611.532	0
7	4827	16745.351	0
7	4881	16912.746	0
7	4908	16968.582	0
7	4954	17104.441	0
7	4989	17191.014	33.291
7	5030	17414.34	0
7	5052	17481.631	0
7	5114	17655.011	0
7	5168	17794.668	0
7	5198	17859.013	0
7	5246	17944.811	0
7	5280	18075.403	9.333
7	5331	18199.802	0
7	5365	18296.304	0
7	5426	18558.078	0
7	5504	18848.467	0
7	5606	19216.843	0
7	5678	19429.04	0
7	5712	19564.711	0
7	5780	19772.954	0
7	5860	20030.749	0
7	5912	20199.573	0
7	5958	20321.899	0
7	5972	20363.292	33.943
7	5995	20438.069	0
7	6033	20568.409	0
7	6107	20783.37	0
7	6165	20956.576	0
7	6184	21007.74	0
7	6270	21261.799	0
7	6324	21433.603	0
7	6358	21618.054	0
7	6425	21897.068	0
7	6472	22069.606	0
7	6496	22204.43	0
7	6526	22283.177	0
7	6559	22392.745	0
7	6585	22484.243	0
7	6637	22675.707	0
7	6683	22814.632	0
7	6693	22886.497	0
7	6747	23026.929	0
7	6777	23108.218	0
7	6796	23199.422	0
7	6839	23311.296	0
7	6884	23465.413	112.22
7	6961	23693.492	0
7	7016	23931.047	0
7	7066	24076.366	0
7	7097	24182.338	0
7	7107	24229.163	2.623
7	7125	24273.999	36.604
7	7186	24449.596	0
7	7210	24512.759	25.9
7	7251	24628.885	100.66
7	7281	24692.835	23.271
7	7309	24755.249	37.429
7	7350	24851.616	9.625
7	7380	24925.291	0
7	7464	25080.633	146.825
7	7524	25246.907	0
7	7581	25473.916	0
7	7588	25530.954	0
7	7645	25761.494	0
7	7680	25868.108	0
7	7701	25908.897	0
7	7719	26019.262	0
7	7754	26115.666	0
7	7780	26200.344	2.543
7	7831	26361.054	0
7	7851	26411.494	27.552
7	7894	26504.887	0
7	7909	26573.779	64.359
7	7942	26669.43	0
7	8020	27007.401	0
7	8099	27285.041	0
7	8152	27468.367	0
7	8194	27569.554	0
7	8222	27717.666	0
7	8273	27925.6	0
7	8302	28024.821	0
7	8352	28132.253	0
7	8370	28196.46	0
7	8428	28453.08	0
7	8462	28556.884	0
7	8496	28688.746	0
7	8517	28772.683	0
7	8558	28864.857	0
7	8581	28937.633	0
7	8633	29129.881	0
7	8666	29226.774	0
7	8713	29373.503	0
7	8735	29449.776	0
7	8765	29547.767	0
7	8832	29732.192	0
7	8918	30320.035	0
7	8988	30482.167	0
7	9118	30946.48	0
7	9142	31041.401	0
7	9168	31152.639	0
7	9217	31267.452	0
7	9279	31505.413	0
7	9394	31834.499	0
7	9419	32107.935	0
7	9451	32241.224	0
7	9513	32432.586	0
7	9562	32563.392	0
7	9577	32603.787	20.795
7	9635	32731.203	0
7	9657	32828.466	84.31
7	9705	33004.476	0
7	9773	33190.373	0
7	9824	33394.535	0
7	9850	33511.176	0
7	9866	33577.108	0
7	9906	33763.097	0
7	9932	33836.101	0
7	9962	33934.195	0
7	10009	34025.376	0
7	10051	34156.21	87.716
7	10072	34215.197	0
7	10113	34361.993	135.06
7	10137	34458.346	0
7	10168	34578.092	58.956
7	10191	34649.457	15.888
7	10219	34726.052	0
7	10235	34784.616	44.995
7	10302	34951.159	0
7	10337	35048.882	0
7	10361	35135.947	71.911
7	10403	35273.579	0
7	10423	35365.55	34.507
7	10470	35515.239	0
7	10494	35573.954	0
7	10519	35666.219	0
7	10560	35820.452	0
7	10597	36022.822	0
7	10617	36109.899	0
7	10692	36366.006	0
7	10743	36542.314	0
7	10787	36693.23	0
7	10802	36759.587	0
7	10822	36806.151	0
7	10861	36910.814	0
7	10909	37086.832	0
7	10963	37270.507	0
7	10983	37339.398	0
7	11052	37594.295	0
7	11129	37775.308	0
7	11166	37892.708	0
7	11196	37959.547	31.3
7	11215	38054.221	19.812
7	11257	38211.779	0
7	11282	38319.829	0
7	11332	38456.307	0
7	11357	38541.745	0
7	11418	38723.187	0
7	11460	38869.814	2.697
7	11484	38938.797	0
7	11506	38990.489	26.736
7	11534	39093.102	0
7	11579	39243.412	0
7	11604	39306.113	0
7	11663	39426.362	89.527
7	11686	39520.14	0
7	11730	39704.105	0
7	11767	39842.873	0
7	11809	40014.229	0
7	11850	40132.08	0
7	11925	40472.841	0
7	11968	40610.589	0
7	11998	40705.396	26.39
7	12041	40858.303	144.872
7	12065	40967.108	0
7	12091	41015.275	0
7	12123	41121.049	0
7	12177	41398.892	0
7	12212	41484.582	9.662
7	12257	41605.686	61.34
7	12313	41744.496	101.489
7	12352	41848.312	0
7	12386	41962.645	0
7	12406	42079.693	0
7	12431	42135.644	14.586
7	12572	42584.159	0
7	12596	42687.968	0
7	12693	43002.895	0
8	17	83.919	0
8	68	237.495	0
8	83	324.438	0
8	123	405.035	0
8	177	548.633	0
8	269	1085.171	0
8	345	1381.205	0
8	390	1493.787	0
8	407	1539.054	0
8	455	1662.353	0
8	474	1726.983	1
8	493	1803.001	0
8	506	1843.03	1
8	542	1982.336	0
8	596	2097.347	1
8	598	2100.9	0
8	647	2234.022	0
8	671	2292.358	0
8	728	2481.715	0
8	791	2736.49	0