version 2
run General-0-20220621-02:57:15-6016
attr configname General
attr datetime 20220621-02:57:15
attr experiment General
attr inifile omnetpp.ini
attr iterationvars $0=123
attr iterationvarsf 123-
attr measurement $0=123
attr network PolicyA
attr processid 6016
attr repetition 0
attr replication #0
attr resultdir results
attr runnumber 0
attr seedset 123

vector 0 PolicyA.queue "time spent on the queue" ETV
attr interpolationmode none
vector 1 PolicyA.queue "queue size after modification" ETV
attr interpolationmode none
vector 2 PolicyA.queue "queue size per minute" ETV
attr interpolationmode none
vector 3 PolicyA.queue "client processing order" ETV
attr interpolationmode none
vector 4 PolicyA.queue "processing time with client order" ETV
attr interpolationmode none
vector 5 PolicyA.queue "till processing order" ETV
attr interpolationmode none
vector 6 PolicyA.queue "client total time in the till" ETV
attr interpolationmode none
vector 7 PolicyA.source "number of clients entering the queue per timer interval" ETV
attr interpolationmode none
0	2	0	0
0	5	23.845	0
0	9	48.807	0
0	13	59.996	0
0	17	83.477	0
0	22	99.506	0
0	27	113.017	0
0	34	124.019	0
0	41	203.039	0
0	43	216.153	0
0	46	219.168	0
0	48	229.123	0
0	61	268.514	29.141
0	69	293.891	46.111
0	81	356.182	82.286
0	86	366.045	86.535
0	97	389.592	86.349
0	99	392.25	78.856
0	106	403.053	62.871
0	108	405.713	45.549
0	115	422.131	50.361
0	132	483.926	108.298
0	134	486.898	109.521
0	143	510.434	117.89
0	149	526.793	106.838
0	153	536.193	94.101
0	168	582.185	125.189
0	175	629.89	163.154
0	177	634.679	139.745
0	180	639.375	132.563
0	182	640.267	124.874
0	193	680.186	141.398
0	197	680.748	136.26
0	217	751.611	201.244
0	223	777.284	129.623
0	228	802.362	121.688
0	230	808.048	123.171
0	235	809.951	121.393
0	242	846.125	145.361
0	244	847.61	145.081
0	256	895.454	184.689
0	262	907.613	148.315
0	269	930.773	122.226
0	287	983.213	111.19
0	296	997.353	106.843
0	298	999.74	101.303
0	300	1005.601	92.033
0	319	1047.26	121.903
0	322	1070.592	119.942
0	330	1084.778	127.786
0	332	1085.344	125.815
0	361	1198.955	224.911
0	366	1211.323	222.227
0	372	1226.791	231.864
0	388	1303.013	291.962
0	391	1309.765	286.081
0	403	1361.41	316.847
0	414	1415.865	332.787
0	416	1416.388	326
0	418	1421.465	313.75
0	420	1422.734	302.52
0	424	1428.908	308.478
0	436	1451.688	323.281
0	452	1510.461	369.103
0	460	1517.693	348.891
0	463	1524.49	306.839
0	469	1534.371	266.726
0	471	1536.083	253.794
0	481	1572.35	282.564
0	491	1592.334	281.386
0	503	1640.55	286.058
0	520	1695.365	313.922
0	526	1699.616	300.049
0	553	1797.333	353.43
0	557	1800.607	354.446
0	559	1802.173	346.933
0	574	1876.541	368.083
0	594	1937.607	423.422
0	600	1973.953	457.353
0	608	1993.83	459.571
0	612	2022.947	436.712
0	614	2023.337	436.712
0	623	2140.417	538.234
0	631	2145.412	521.57
0	639	2171.055	527.684
0	644	2176.859	529.333
0	662	2230.735	575.298
0	673	2280.945	621.521
0	675	2287.19	590.242
0	678	2296.733	596.798
0	680	2299.219	589.304
0	684	2306.658	578.108
0	703	2358.086	598.919
0	709	2370.86	605.287
0	716	2398.676	620.296
0	724	2416.016	625.004
0	729	2441.6	578.011
0	732	2449.476	573.505
0	742	2504.309	614.362
0	747	2511.679	620.484
0	760	2566.151	667.59
0	771	2612.085	703.346
0	779	2628.061	705.103
0	790	2654.647	709.383
0	795	2670.356	688.473
0	801	2679.581	536.517
0	810	2703.002	558.157
0	822	2816.096	646.068
0	826	2834.818	663.559
0	833	2859.329	655.123
0	839	2869.567	655.669
0	841	2871.435	643.286
0	856	2913.952	672.961
0	862	2926.557	672.943
0	867	2963.859	648.219
0	871	2987.051	670.515
0	873	2990.654	643.36
0	882	3034.171	675.997
0	884	3041.34	665.9
0	889	3046.026	640.25
0	895	3069.487	611.236
0	915	3154.894	648.949
0	922	3182.314	644.646
0	926	3198.016	649.681
0	929	3211.697	616.99
0	931	3222.079	622.118
0	946	3281.543	666.426
0	959	3311.284	694.466
0	962	3329.486	701.09
0	984	3409.222	761.297
0	987	3426.863	754.824
0	995	3464.819	766.71
0	999	3475.302	766.096
0	1004	3516.671	731.737
0	1006	3523.665	668.007
0	1018	3542.09	673.544
0	1027	3598.968	707.055
0	1035	3604.042	694.245
0	1047	3672.86	753.241
0	1049	3674.05	631.06
0	1052	3679.031	586.694
0	1059	3703.889	583.502
0	1066	3708.802	583.849
0	1077	3769.357	639.258
0	1080	3788.074	632.27
0	1084	3802.061	523.609
0	1089	3834.633	554.285
0	1094	3872.405	577.517
0	1101	3896.688	601.65
0	1109	3923.258	621.813
0	1112	3938.732	576.25
0	1115	3952.755	568.054
0	1132	4004.568	617.124
0	1138	4016.039	627.813
0	1153	4075.15	677.062
0	1156	4082.014	636.323
0	1159	4101.344	576.893
0	1163	4112.183	570.613
0	1165	4116.752	535.968
0	1168	4124.029	523.304
0	1170	4124.229	508.406
0	1198	4174.172	523.814
0	1206	4219.385	517.847
0	1216	4247.278	540.659
0	1227	4267.309	518.167
0	1229	4269.251	382.682
0	1234	4289.117	371.937
0	1244	4326.881	352.814
0	1247	4341.032	353.538
0	1250	4348.297	355.609
0	1252	4361.604	353.923
0	1265	4389.357	344.013
0	1287	4494.152	427.127
0	1297	4515.256	445.924
0	1299	4516.647	391.895
0	1305	4532.478	384.919
0	1309	4536.787	379.362
0	1312	4542.127	380.186
0	1324	4588.576	422.193
0	1332	4629.605	441.032
0	1339	4649.316	424.528
0	1357	4704.717	477.785
0	1360	4726.207	469.336
0	1375	4774.91	512.046
0	1383	4788.283	480.616
0	1394	4830.138	455.307
0	1400	4845.904	467.199
0	1411	4881.051	473.565
0	1413	4884.874	475.176
0	1427	4947.643	485.078
0	1430	4960.463	483.141
0	1433	4969.711	488.999
0	1442	5004.229	505.788
0	1444	5006.835	502.547
0	1449	5024.373	502.284
0	1460	5110.797	541.964
0	1465	5175.294	558.605
0	1470	5184.547	547.005
0	1473	5191.515	537.823
0	1475	5191.89	516.555
0	1483	5226.537	536.863
0	1487	5234.223	538.548
0	1494	5247.284	518.719
0	1503	5283.516	546.369
0	1508	5284.305	534.772
0	1513	5312.855	532.416
0	1525	5343.729	562.457
0	1531	5357.466	551.065
0	1535	5372.675	537.985
0	1548	5395.567	529.522
0	1550	5396.323	516.37
0	1557	5409.707	511.823
0	1569	5447.571	546.052
0	1574	5466.691	470.741
0	1581	5497.364	471.748
0	1590	5516.336	335.508
0	1596	5547.145	300.485
0	1602	5597.733	322.934
0	1604	5600.157	315.978
0	1611	5619.187	297.288
0	1613	5626.361	286.911
0	1631	5681.227	331.655
0	1636	5691.882	314.999
0	1647	5719.348	329.738
0	1652	5742.866	351.928
0	1657	5752.038	321.668
0	1669	5766.029	325.581
0	1671	5774.041	288.766
0	1683	5784.385	280.7
0	1690	5807.875	301.416
0	1694	5819.273	204.502
0	1702	5828.989	186.571
0	1714	5878.645	233.929
0	1724	5908.311	240.041
0	1737	5932.413	247.401
0	1766	6043.28	342.037
0	1768	6043.382	333.106
0	1775	6085.285	333.835
0	1777	6087.864	329.774
0	1797	6181.772	421.272
0	1803	6190	415.317
0	1808	6201.867	420.653
0	1816	6233.915	451.698
0	1818	6235.148	413.351
0	1843	6323.362	490.38
0	1845	6334.899	491.946
0	1852	6355.714	472.577
0	1858	6383.035	476.274
0	1867	6437.663	511.533
0	1875	6480.229	553.966
0	1884	6510.261	581.006
0	1890	6521.543	552.371
0	1897	6564.363	580.366
0	1899	6570.309	584.222
0	1903	6594.514	605.773
0	1910	6615.011	621.053
0	1928	6694.309	684.238
0	1931	6707.83	677.149
0	1933	6718.838	595.842
0	1950	6764.979	631.449
0	1957	6785.851	649.591
0	1960	6792.105	610.942
0	1966	6804.41	616.709
0	1971	6834.091	638.403
0	1990	6880.28	668.188
0	1992	6880.903	642.849
0	2015	6977.828	724.976
0	2023	7024.457	765.67
0	2025	7025.608	742.396
0	2029	7050.94	738.273
0	2037	7061.168	716.279
0	2043	7072.643	667.577
0	2047	7090.237	616.725
0	2050	7096.193	603.157
0	2057	7129.919	634.928
0	2068	7164.234	646.009
0	2075	7228.019	570.729
0	2082	7272.914	612.504
0	2098	7432.111	747.698
0	2105	7457.483	765.661
0	2114	7501.329	781.689
0	2117	7520.878	791.227
0	2135	7573.243	829.242
0	2138	7599.081	816.859
0	2141	7607.6	812.782
0	2147	7646.367	810.944
0	2151	7674.541	826.371
0	2156	7701.014	834.824
0	2168	7758.569	887.43
0	2170	7762.457	865.841
0	2177	7787.843	875.186
0	2186	7800.536	878.165
0	2197	7821.707	889.48
0	2208	7859.809	926.786
0	2211	7864.945	877.302
0	2220	7915.036	861.824
0	2234	7962.825	909.126
0	2245	8021.399	875.394
0	2249	8064.216	908.96
0	2251	8068.143	813.71
0	2255	8078.665	775.789
0	2265	8118.986	803.919
0	2268	8135.445	717.937
0	2278	8152.195	718.957
0	2286	8172.742	708.014
0	2290	8179.53	657.049
0	2292	8180.036	640.323
0	2294	8183.882	642.145
0	2300	8205.666	659.419
0	2314	8242.213	509.824
0	2317	8248.516	512.158
0	2321	8273.153	485.672
0	2336	8313.819	517.249
0	2344	8347.171	528.892
0	2348	8369.04	548.413
0	2364	8418.918	574.897
0	2369	8428.051	571.425
0	2373	8442.236	574.885
0	2375	8447.141	521.538
0	2394	8527.365	589.488
0	2396	8528.365	568.748
0	2404	8571.963	588.838
0	2407	8574.721	563.887
0	2418	8650.699	543.913
0	2424	8677.457	538.223
0	2439	8746.284	604.791
0	2444	8751.886	595.207
0	2449	8783.038	564.022
0	2459	8825.566	606.525
0	2464	8836.615	540.578
0	2466	8843.191	547.062
0	2473	8848.705	542.136
0	2491	8910.468	586.852
0	2493	8915.047	523.219
0	2501	8946.177	551.773
0	2510	8999.649	603.854
0	2524	9025.149	597.463
0	2530	9037.844	550.693
0	2547	9122.43	634.524
0	2550	9134.461	630.048
0	2553	9137.829	567.699
0	2555	9142.727	540.614
0	2561	9154.399	491.296
0	2574	9192.116	506.489
0	2588	9258.187	529.112
0	2590	9262.088	521.782
0	2609	9312.266	560.777
0	2611	9313.618	494.271
0	2624	9375.661	542.486
0	2626	9376.688	531.529
0	2633	9399.752	541.213
0	2649	9448.227	582.477
0	2651	9456.95	588.345
0	2666	9493.584	552.822
0	2668	9498.004	547.347
0	2671	9498.487	489.882
0	2686	9576.608	562.002
0	2698	9621.803	598.57
0	2701	9635.767	601.054
0	2703	9635.857	585.962
0	2714	9690.816	625.866
0	2716	9695.119	588.858
0	2724	9701.497	557.738
0	2727	9706.914	528.531
0	2733	9724.505	526.607
0	2735	9732.418	498.889
0	2746	9753.633	500.096
0	2755	9795.275	531.709
0	2757	9798.794	497.017
0	2780	9882.375	576.203
0	2782	9883.964	575.084
0	2785	9897.463	562.721
0	2789	9903.974	544.938
0	2794	9928.506	546.19
0	2797	9935.094	520.923
0	2822	10029.355	609.238
0	2830	10082.531	639.901
0	2835	10098.466	636.149
0	2839	10112.802	640.712
0	2859	10137.767	663.259
0	2870	10173.543	658.419
0	2880	10191.341	646.476
0	2886	10230.738	649.958
0	2893	10246.923	630.619
0	2896	10255.356	566.094
0	2900	10269.147	571.939
0	2911	10289.278	588.758
0	2914	10298.113	559.144
0	2916	10303.718	548.264
0	2926	10320.811	517.253
0	2930	10337.95	492.026
0	2938	10388.581	535.066
0	2940	10389.849	525.013
0	2944	10407.97	537.607
0	2946	10415.648	459.254
0	2950	10426.888	454.682
0	2964	10466.301	482.469
0	2966	10470.806	466.501
0	2970	10483.511	461.393
0	2980	10523.155	486.184
0	2995	10590.517	507.198
0	2997	10601.349	486.557
0	3016	10655.113	538.768
0	3018	10663.628	547.114
0	3021	10675.55	555.551
0	3045	10753.754	631.194
0	3047	10755.416	603.152
0	3057	10776.036	619.625
0	3059	10783.009	606.328
0	3066	10801.015	610.395
0	3073	10844.151	608.912
0	3087	10897.545	621.617
0	3089	10899.814	621.788
0	3092	10912.311	597.475
0	3103	10971.167	538.207
0	3111	11011.926	560.772
0	3113	11018.297	504.619
0	3121	11047.922	489.118
0	3126	11074.324	500.248
0	3128	11074.394	499.356
0	3139	11097.289	485.969
0	3168	11218.696	606.296
0	3181	11245.264	619.775
0	3191	11274.318	638.31
0	3196	11295.491	615.681
0	3198	11297.722	590.992
0	3204	11340.882	622.185
0	3208	11341.792	596.588
0	3211	11350.374	598.707
0	3214	11354.046	584.637
0	3216	11360.06	585.6
0	3235	11487.864	640.719
0	3237	11495.115	629.432
0	3244	11513.708	638.162
0	3246	11514.767	566.728
0	3251	11532.569	552.612
0	3264	11560.698	534.803
0	3267	11573.711	491.268
0	3269	11577.255	481.153
0	3275	11602.338	478.497
0	3280	11620.115	468.825
0	3299	11689.655	536.822
0	3301	11699.065	543.989
0	3308	11748.869	580.144
0	3310	11752.171	574.878
0	3321	11782.685	568.394
0	3334	11834.403	611.243
0	3337	11866.143	638.895
0	3352	11905.289	663.801
0	3354	11908.01	641.406
0	3367	11946.98	674.243
0	3370	11951.037	586.045
0	3372	11951.894	531.145
0	3393	12020.39	521.436
0	3401	12082.371	526.651
0	3404	12099.141	540.584
0	3407	12101.88	478.265
0	3416	12133.083	505.574
0	3433	12179.114	532.332
0	3436	12189.758	539.973
0	3438	12192.421	426.688
0	3441	12194.799	417.827
0	3452	12210.522	419.82
0	3456	12225.853	406.97
0	3477	12295.119	401.662
0	3479	12297.953	402.813
0	3488	12339.904	444.42
0	3492	12342.968	419.684
0	3494	12355.442	427.652
0	3534	12490.021	530.101
0	3537	12497.43	524.44
0	3543	12522.079	532.713
0	3550	12564.368	550.543
0	3552	12565.523	506.922
0	3555	12570.87	461.35
0	3579	12629.778	492.802
0	3587	12688.09	537.731
0	3593	12705.509	549.201
0	3596	12719.642	559.575
0	3604	12735.686	537.336
0	3606	12737.566	535.67
0	3608	12740.324	513.767
0	3626	12773.586	539.935
0	3634	12796.061	530.689
0	3638	12821.686	547.866
0	3654	12907.282	609.314
0	3656	12909.63	545.142
0	3675	13001.065	609.59
0	3693	13104.245	711.744
0	3700	13142.7	737.984
0	3710	13222.803	811.288
0	3718	13316.478	893.706
0	3722	13343.385	917.977
0	3729	13358.376	930.004
0	3731	13360.189	902.546
0	3738	13400.073	940.855
0	3746	13442.024	943.236
0	3750	13458.283	885.51
0	3765	13553.777	974.106
0	3768	13567.001	977.57
0	3772	13575.156	962.295
0	3783	13686.541	1065.689
0	3789	13714.811	1044.056
0	3795	13731.849	1032.534
0	3807	13813.331	1091.992
0	3810	13835.219	1085.464
0	3821	13870.9	1099.786
0	3823	13872.266	1101.088
0	3834	13898.994	1120.782
0	3840	13912.889	1090.657
0	3850	13957.974	1071.448
0	3863	13976.288	1075.965
0	3867	13983.905	1067.472
0	3882	14030.336	1088.629
0	3886	14046.162	1063.505
0	3895	14103.714	1114.928
0	3898	14109.669	1105.941
0	3900	14110.615	1103.524
0	3913	14154.467	1090.151
0	3920	14183.027	1114.615
0	3924	14205.046	1088.415
0	3933	14261.765	1077.843
0	3957	14353.901	1041.758
0	3966	14377.002	1020.139
0	3968	14383.38	980.92
0	3971	14392.474	930.408
0	3980	14402.802	924.917
0	3987	14409.149	872.78
0	4006	14550.208	895.616
0	4010	14581.156	881.199
0	4017	14612.531	885.452
0	4024	14631.764	870.918
0	4055	14741.261	899.394
0	4060	14755.186	898.116
0	4069	14796.623	920.063
0	4091	14924.994	1043.868
0	4096	14936.139	1030.463
0	4107	14967.768	1046.529
0	4127	15048.743	1084.832
0	4135	15094.495	1123.107
0	4137	15108.334	1133.606
0	4142	15126.734	1140.319
0	4150	15146.932	1130.935
0	4174	15191.525	1165.497
0	4177	15198.752	1099.563
0	4180	15226.313	1114.284
0	4183	15233.528	1120.463
0	4192	15246.338	1064.651
0	4205	15304.29	1065.23
0	4212	15357.535	1086.007
0	4216	15363.452	1077.662
0	4218	15368.7	1073.076
0	4228	15413.042	1113.044
0	4243	15499.918	1175.04
0	4251	15552.47	1227.2
0	4255	15594.947	1230.72
0	4263	15627.054	1261.885
0	4265	15629.916	1231.385
0	4269	15637.815	1230.753
0	4273	15645.046	1234.389
0	4285	15726.199	1293.217
0	4291	15747.487	1247.779
0	4306	15809.83	1216.242
0	4326	15878.924	1265.829
0	4333	15903.012	1260.257
0	4337	15928.458	1284.53
0	4344	15949.229	1298.433
0	4353	15991.726	1317.209
0	4356	16012.083	1331.445
0	4365	16064.645	1358.857
0	4372	16088.742	1357.658
0	4374	16093.265	1356.38
0	4376	16095.196	1347.281
0	4385	16113.475	1344.136
0	4395	16151.024	1324.178
0	4398	16161.442	1331.096
0	4409	16193.727	1352.34
0	4418	16214.059	1303.772
0	4420	16215.227	1299.441
0	4425	16231.435	1302.325
0	4429	16254.828	1302.806
0	4437	16268.591	1303.018
0	4441	16277.67	1297.477
0	4444	16288.854	1301.885
0	4464	16352.804	1334.56
0	4471	16397.607	1378.22
0	4477	16417.429	1333.27
0	4484	16434.533	1307.555
0	4493	16461.343	1311.909
0	4495	16462.798	1309.289
0	4497	16463.164	1287.591
0	4501	16473.932	1297.289
0	4516	16519.771	1333.052
0	4523	16548.339	1356.969
0	4526	16555.293	1316.292
0	4530	16563.494	1304.176
0	4551	16705.837	1429.024
0	4554	16718.797	1380.156
0	4562	16740.099	1333.662
0	4570	16797.189	1373.732
0	4572	16799.214	1348.954
0	4588	16936.53	1454.932
0	4597	16971.981	1431.735
0	4602	17003.795	1406.141
0	4604	17005.276	1313.702
0	4614	17047.6	1306.706
0	4629	17154.234	1395.166
0	4631	17158.945	1371.994
0	4639	17170.643	1383.014
0	4651	17187.842	1362.476
0	4662	17238.338	1411.856
0	4667	17245.381	1417.646
0	4676	17281.975	1453.052
0	4678	17284.642	1433.942
0	4680	17285.85	1394.597
0	4687	17327.107	1396.259
0	4693	17345.828	1382.324
0	4695	17345.876	1303.307
0	4708	17398.013	1316.288
0	4714	17439.772	1330.743
0	4718	17465.77	1325.018
0	4722	17486.483	1313.066
0	4727	17522.062	1328.836
0	4734	17538.132	1327.491
0	4739	17544.216	1288.318
0	4741	17547.286	1254.501
0	4746	17555.291	1238.764
0	4748	17558.904	1238.366
0	4750	17561.774	1211.739
0	4763	17605.803	1237.439
0	4765	17607.404	1194.356
0	4767	17609.662	1183.612
0	4781	17653.874	1213.643
0	4784	17668.097	1184.851
0	4806	17741.89	1233.885
0	4811	17795.034	1267.672
0	4814	17799.264	1216.629
0	4817	17813.745	1226.173
0	4819	17817.193	1224.172
0	4825	17836.94	1233.28
0	4831	17872.786	1153.898
0	4855	18033.464	1242.721
0	4861	18047.374	1137.545
0	4870	18103.287	1189.469
0	4877	18126.761	1189.649
0	4881	18155.354	1209.879
0	4890	18203.561	1177.569
0	4898	18277.35	1186.858
0	4904	18299.604	1177.069
0	4908	18309.506	1155.7
0	4910	18313.632	1145.494
0	4916	18321.44	1141.423
0	4920	18327.826	1146.913
0	4936	18371.092	1184.248
0	4938	18372.011	1152.118
0	4970	18528.992	1287.169
0	4974	18563.245	1297.271
0	4978	18572.459	1214.018
0	4981	18583.551	1212.815
0	4987	18594.999	1059.643
0	4994	18614.905	1072.059
0	5016	18707.978	1079.096
0	5023	18729.699	1093.15
0	5031	18768.303	1089.884
0	5036	18774.553	1087.676
0	5062	18887.333	1182.302
0	5067	18892.226	1173.546
0	5073	18930.376	1202.081
0	5077	18949.991	1022.955
0	5082	18973.145	970.366
0	5084	18974.406	966.225
0	5098	19024.521	1001.034
0	5100	19031.921	1001.474
0	5113	19068.743	1028.536
0	5122	19086.687	1014.506
0	5137	19172.852	1057.269
0	5143	19190.895	1025.44
0	5146	19197.726	979.475
0	5150	19211.714	930.087
0	5156	19233.419	914.924
0	5163	19252.866	924.393
0	5171	19267.576	912.529
0	5173	19279.802	907.105
0	5192	19400.029	988.801
0	5197	19444.76	975.189
0	5200	19450.004	961.863
0	5218	19501.229	1009.725
0	5220	19507.862	1012.573
0	5222	19509.107	1013.755
0	5227	19515.186	1012.225
0	5233	19540.907	946.542
0	5244	19572.767	957.688
0	5250	19583.946	943.596
0	5263	19643.278	989.942
0	5280	19730.113	1052.32
0	5282	19734.764	1051.535
0	5286	19749.655	1022.314
0	5298	19825.484	1061.103
0	5309	19862.506	1091.783
0	5315	19886.279	1104.582
0	5336	19932.68	1148.605
0	5344	19983.914	1187.325
0	5348	20017.611	1201.339
0	5358	20051.056	1234.656
0	5365	20069.511	1234.242
0	5372	20098.657	1210.212
0	5383	20137.998	1163.287
0	5385	20140.275	1147.976
0	5418	20265.021	1224.977
0	5420	20277.7	1220.602
0	5433	20321.751	1255.15
0	5441	20360.123	1274.999
0	5444	20376.773	1279.257
0	5446	20380.208	1280.354
0	5464	20444.976	1300.487
0	5471	20468.657	1283.252
0	5479	20514.722	1268.025
0	5483	20537.296	1283.151
0	5490	20563.087	1280.565
0	5497	20574.723	1269.737
0	5509	20619.511	1227.383
0	5527	20742.217	1282.862
0	5535	20803.45	1335.41
0	5539	20836.614	1368.12
0	5543	20865.567	1385.333
0	5551	20897.162	1383.757
0	5558	20935.222	1374.453
0	5565	20943.578	1368.92
0	5570	20947.323	1338.964
0	5581	20969.436	1331.298
0	5583	20970.253	1302.758
0	5585	20975.317	1300.687
0	5604	21044.233	1336.518
0	5607	21055.94	1342.541
0	5611	21068.955	1296.451
0	5614	21079.276	1238.078
0	5620	21085.038	1242.504
0	5639	21212.798	1347.165
0	5641	21214.501	1323.987
0	5646	21245.144	1348.082
0	5651	21264.554	1359.432
0	5655	21295.83	1389.876
0	5657	21298.668	1368.729
0	5666	21330.521	1350.232
0	5682	21375.085	1335.825
0	5687	21428.414	1385.876
0	5693	21444.748	1388.159
0	5698	21446.508	1357.285
0	5707	21479.253	1377.753
0	5719	21524.721	1412.755
0	5721	21528.069	1367.569
0	5724	21537.955	1367.655
0	5732	21584.713	1412.729
0	5734	21585.176	1411.015
0	5740	21624.615	1428.48
0	5745	21652.578	1420.887
0	5752	21664.211	1409.278
0	5754	21668.658	1405.307
0	5772	21735.282	1430.039
0	5774	21740.449	1422.805
0	5778	21756.59	1427.388
0	5784	21796.899	1402.371
0	5788	21810.735	1374.937
0	5803	21874.996	1430.496
0	5824	21991.396	1531.836
0	5831	22032.192	1550.369
0	5835	22038.893	1501.499
0	5837	22049.158	1482.834
0	5854	22121.185	1533.987
0	5857	22138.253	1523.781
0	5863	22185.007	1558.006
0	5865	22191.315	1541.208
0	5874	22207.383	1523.225
0	5883	22219.817	1505.601
0	5887	22231.029	1428.651
0	5908	22351.755	1475.298
0	5910	22364.665	1446.072
0	5921	22392.787	1452.524
0	5934	22458.69	1513.672
0	5936	22461.894	1507.021
0	5940	22478.779	1514.373
0	5947	22494.926	1498.361
0	5952	22509.764	1471.078
0	5954	22514.818	1431.334
0	5958	22520.198	1381.736
0	5966	22532.164	1391.217
0	5974	22558.317	1387.948
0	5980	22586.813	1276.893
0	5993	22619.653	1278.681
0	5998	22651.179	1288.201
0	6006	22680.453	1311.739
0	6008	22684.613	1245.561
0	6010	22687.477	1241.511
0	6029	22742.781	1274.272
0	6034	22750.743	1250.736
0	6037	22757.053	1249.454
0	6041	22779.915	1118.366
0	6045	22793.401	1118.85
0	6051	22810.537	1126.746
0	6061	22855.183	1146.205
0	6079	22938.924	1097.42
0	6091	22964.619	1101.488
0	6096	22978.499	1111.724
0	6101	22981.246	1103.464
0	6118	23048.31	1168.908
0	6124	23098.114	1193.79
0	6135	23114.757	1198.393
0	6137	23128.575	1169.735
0	6142	23157.769	1160.227
0	6147	23164.042	1078.045
0	6157	23246.819	1155.639
0	6159	23253.707	1146.189
0	6171	23295.047	1090.138
0	6174	23297.84	1086.035
0	6189	23411.953	1193.101
0	6194	23418.306	1164.815
0	6204	23448.615	1183.337
0	6210	23457.432	1188.986
0	6215	23461.534	1175.299
0	6225	23484.938	1107.533
0	6228	23496.966	1106.774
0	6260	23666.41	1248.466
0	6264	23701.252	1272.154
0	6271	23717.363	1231.783
0	6277	23784.537	1263.157
0	6287	23833.533	1294.081
0	6290	23838.212	1242.845
0	6294	23865.232	1260.505
0	6309	23893.889	1276.199
0	6316	23916.143	1252.238
0	6330	24006.194	1306.798
0	6339	24019.213	1318.698
0	6345	24031.085	1295.439
0	6350	24055.409	1304.936
0	6370	24231	1378.57
0	6372	24233.123	1373.211
0	6380	24262.543	1392.188
0	6390	24309.171	1435.036
0	6396	24317.673	1390.638
0	6399	24333.421	1392.655
0	6406	24384.72	1426.762
0	6409	24417.312	1456.743
0	6418	24464.61	1489.062
0	6423	24474.372	1492.268
0	6428	24493.973	1480.08
0	6434	24505.629	1474.044
0	6437	24511.045	1438.763
0	6451	24547.515	1441.477
0	6454	24555.574	1446.995
0	6456	24562.085	1356.714
0	6472	24624.415	1343.954
0	6474	24631.914	1340.254
0	6477	24639.526	1262.721
0	6488	24660.086	1270.409
0	6500	24674.703	1259.066
0	6512	24759.237	1312.36
0	6521	24775.611	1327.798
0	6532	24803.99	1347.557
0	6544	24850.784	1386.519
0	6556	24886.545	1415.722
0	6562	24922.348	1415.564
0	6565	24932.212	1396.323
0	6570	24960.98	1405.818
0	6574	24985.057	1414.438
0	6583	25075.027	1477.84
0	6591	25127.026	1514.864
0	6594	25139.928	1501.444
0	6597	25146.446	1443.257
0	6599	25147.711	1327.331
0	6601	25150.186	1321.582
0	6611	25162.747	1296.159
0	6624	25198.155	1321.55
0	6637	25235.55	1351.542
0	6639	25239.359	1337.113
0	6645	25284.319	1341.146
0	6652	25312.507	1361.265
0	6657	25330.754	1317.999
0	6659	25334.295	1318.74
0	6661	25338.744	1308.493
0	6672	25376.832	1255.478
0	6677	25410.233	1228.751
0	6691	25441.506	1244.445
0	6696	25445.229	1223.818
0	6701	25472.555	1219.692
0	6706	25498.899	1217.996
0	6724	25543.868	1229.345
0	6727	25554.872	1135.054
0	6732	25582.883	1111.333
0	6736	25610.522	1110.706
0	6752	25701.629	1168.307
0	6777	25821.432	1284.891
0	6783	25856.198	1272.008
0	6791	25870.455	1257.694
0	6795	25909.065	1269.227
0	6803	25924.256	1283.016
0	6815	25980.469	1319.702
0	6818	25998.267	1330.734
0	6820	26010.577	1335.074
0	6827	26052.157	1363.003
0	6830	26064.1	1302.071
0	6852	26147.902	1373.891
0	6854	26151.699	1371.936
0	6866	26192.684	1401.908
0	6869	26198.97	1393.946
0	6875	26228.875	1398.506
0	6885	26258.069	1400.231
0	6887	26265.825	1392.56
0	6898	26277.396	1400.931
0	6907	26294.015	1260.916
0	6913	26315.87	1212.725
0	6918	26338.273	1175.698
0	6922	26353.052	1173.684
0	6925	26356.276	1164.717
0	6932	26397.647	1181.603
0	6937	26407.117	1178.143
0	6939	26414.073	1118.828
0	6941	26414.194	1059.851
0	6943	26416.071	996.331
0	6956	26433.456	999.197
0	6959	26447.561	1011.422
0	6966	26460.45	1017.926
0	6971	26479.552	969.004
0	6978	26498.888	978.976
0	6984	26525.14	998.739
0	6986	26529.787	999.395
0	6991	26559.467	926.279
0	7007	26632.922	971.604
0	7011	26662.418	986.48
0	7017	26708.459	999.442
0	7021	26758.549	1044.329
0	7029	26812.296	1039.364
0	7040	26860.464	1079.202
0	7042	26878.303	1091.125
0	7050	26890.366	1069.569
0	7052	26898.779	1074.062
0	7064	26925.195	1064.272
0	7068	26938.694	1016.411
0	7075	26948.788	1014.975
0	7094	26998.821	1029.445
0	7098	27008.014	938.649
0	7103	27043.522	965.572
0	7111	27076.641	977.975
0	7114	27087.089	970.284
0	7124	27133.198	1015.736
0	7135	27152.767	993.66
0	7147	27188.097	1006.009
0	7149	27188.118	945.103
0	7154	27195.844	939.787
0	7161	27220.22	949.278
0	7164	27227.921	951.033
0	7185	27324.426	1046.316
0	7187	27326.62	1034.909
0	7189	27330.453	909.412
0	7206	27365.099	934.879
0	7218	27451.545	969.453
0	7220	27464.5	904.699
0	7233	27519.371	954.224
0	7246	27565.917	949.746
0	7248	27567.168	783.867
0	7259	27601.663	784.316
0	7263	27609.818	774.077
0	7265	27610.714	726.377
0	7267	27611.27	711.701
0	7278	27624.834	708.867
0	7282	27643.662	701.59
0	7292	27670.821	710.911
0	7303	27710.356	747.944
0	7311	27734.794	759.904
0	7315	27750.369	769.031
0	7322	27775.69	728.254
0	7334	27820.646	718.704
0	7347	27849.367	715.678
0	7350	27859.415	712.778
0	7354	27873.253	724.124
0	7363	27906.547	744.812
0	7367	27939.046	759.761
0	7370	27951.065	741.35
0	7390	28029.379	761.125
0	7392	28030.465	745.229
0	7402	28057.04	752.122
0	7404	28061.274	748.22
0	7414	28091.254	760.308
0	7439	28184.733	844.479
0	7455	28260.408	899.511
0	7457	28265.064	853.054
0	7462	28274.035	846.467
0	7470	28304.664	805.756
0	7503	28389.531	885.413
0	7505	28396.719	871.685
0	7516	28429.851	896.543
0	7525	28478.36	912.997
0	7534	28499.824	913.156
0	7538	28510.141	896.385
0	7546	28550.886	927.37
0	7549	28555.599	910.033
0	7556	28574.535	879.55
0	7562	28605.785	898.954
0	7567	28638.389	904.816
0	7580	28663.003	899.05
0	7584	28677.437	896.496
0	7587	28681.469	885.927
0	7595	28703.592	874.999
0	7600	28733.715	892.937
0	7612	28795.069	947.378
0	7628	28890.646	1006.047
0	7634	28899.618	922.398
0	7642	28927.684	931.791
0	7645	28946.096	948.398
0	7647	28949.333	927.411
0	7652	28965.789	932.549
0	7662	28993.902	955.926
0	7666	29026.536	936.295
0	7681	29065.994	966.541
0	7683	29069.619	934.942
0	7696	29093.575	946.106
0	7702	29115.989	968.395
0	7704	29117.717	967.943
0	7706	29122.045	961.789
0	7711	29135.955	920.029
0	7720	29191.48	972.991
0	7722	29195.617	953.487
0	7724	29196.458	925.148
0	7752	29291.001	1009.463
0	7755	29310.949	997.352
0	7763	29344.528	1030.636
0	7773	29366.508	1051.515
0	7779	29374.735	1052.23
0	7789	29399.698	1065.683
0	7794	29403.044	1062.397
0	7799	29422.609	1064.643
0	7804	29455.423	1071.984
0	7815	29481.685	1061.67
0	7824	29527.714	1104.375
0	7841	29626.622	1154.48
0	7846	29627.417	1142.641
0	7856	29680.276	1189.439
0	7862	29693.343	1183.045
0	7875	29714.044	1154.653
0	7894	29780.828	1141.758
0	7896	29781.681	1123.246
0	7900	29798.054	1139.282
0	7905	29822.668	1135.523
0	7916	29848.321	1096.566
0	7920	29864.173	1083.566
0	7925	29877.231	1081.414
0	7931	29888.023	1072.063
0	7943	29924.992	1091.241
0	7945	29931.631	1035.903
0	7950	29947.891	1021.24
0	7955	29965.435	990.77
0	7959	29987.696	956.326
0	7961	29989.816	944.116
0	7968	30019.469	967.334
0	7973	30044.893	974.621
0	7983	30060.475	974.954
0	7987	30073.166	982.02
0	7995	30109.439	897.788
0	8004	30163.712	913.777
0	8007	30172.771	913.107
0	8011	30193.376	928.87
0	8017	30240.337	975.82
0	8026	30335.705	1048.484
0	8029	30351.576	1037.212
0	8034	30372.831	1024.509
0	8041	30403.311	1043.976
0	8045	30413.981	1043.534
0	8048	30420.676	1034.427
0	8062	30480.588	1083.882
0	8065	30505.867	1039.425
0	8076	30540.349	1069.017
0	8079	30547.431	1052.397
0	8090	30602.891	1047.706
0	8092	30614.008	1017.356
0	8097	30652.466	1047.249
0	8102	30693.168	1074.738
0	8109	30708.921	1081.771
0	8117	30737.585	1069.485
0	8122	30752.667	1063.919
0	8136	30837.894	1142.102
0	8142	30840.261	1135.231
0	8150	30880.537	1173.304
0	8160	30892.839	1173.326
0	8165	30926.768	1201.308
0	8168	30934.406	1194.39
0	8178	30990.34	1230.032
0	8184	31013.235	1178.586
0	8189	31050.728	1215.376
0	8196	31065.641	1193.515
0	8208	31120.053	1229.02
0	8214	31133.463	1227.65
0	8216	31136.619	1086.945
0	8222	31162.911	1109.767
0	8236	31217.135	1130.605
0	8238	31227.88	1064.827
0	8240	31232.822	899.521
0	8245	31246.445	853.801
0	8258	31284.462	840.121
0	8260	31284.955	824.676
0	8263	31290.914	767.58
0	8271	31310.053	784.274
0	8278	31325.745	762.732
0	8293	31408.068	706.954
0	8295	31409.879	674.602
0	8297	31416	664.88
0	8301	31430.711	654.012
0	8313	31482.857	696.73
0	8315	31488.234	648.234
0	8320	31520.71	676.428
0	8327	31582.487	695.192
0	8336	31614.35	725.391
0	8351	31665.46	699.953
0	8362	31709.738	710.081
0	8379	31779.478	724.838
0	8384	31792.997	722.927
0	8390	31805.634	705.444
0	8392	31813.652	686.731
0	8410	31878.236	695.843
0	8416	31902.393	702.867
0	8424	31926.153	666.383
0	8429	31932.125	668.298
0	8434	31953.905	653.55
0	8437	31963.485	640.54
0	8440	31971.929	639.534
0	8446	31985.641	637.849
0	8455	31994.458	558.007
0	8458	31997.796	394.929
0	8470	32014.706	407.151