version 2
run General-0-20220309-04:01:34-8100
attr configname General
attr datetime 20220309-04:01:34
attr experiment General
attr inifile omnetpp.ini
attr iterationvars $0=456
attr iterationvarsf 456-
attr measurement $0=456
attr network PolicyA
attr processid 8100
attr repetition 0
attr replication #0
attr resultdir results
attr runnumber 0
attr seedset 456

vector 0 PolicyA.queue "time spent on the queue" ETV
attr interpolationmode none
vector 1 PolicyA.queue "queue size after modification" ETV
attr interpolationmode none
vector 2 PolicyA.queue "client processing order" ETV
attr interpolationmode none
vector 3 PolicyA.queue "processing time with client order" ETV
attr interpolationmode none
vector 4 PolicyA.queue "till processing order" ETV
attr interpolationmode none
vector 5 PolicyA.queue "client total time in the till" ETV
attr interpolationmode none
vector 6 PolicyA.queue "queue size per minute" ETV
attr interpolationmode none
vector 7 PolicyA.source "number of clients entering the queue per timer interval" ETV
attr interpolationmode none
0	2	0	0
0	5	8.581	0
0	16	126.677	0
0	20	172.602	0
0	27	222.192	0
0	33	251.667	0
0	37	256.707	0
0	40	267.928	0
0	49	332.996	0
0	52	338.99	0
0	54	344.385	0
0	57	349.267	0
0	64	366.026	0
0	69	383.19	0
0	79	417.135	0
0	83	420.027	0
0	93	454.835	0
0	99	480.154	0
0	105	504.897	0
0	109	510.646	0
0	123	549.195	0
0	126	555.182	0
0	129	570.861	0
0	131	574.633	0
0	134	581.283	0
0	136	583.657	0
0	149	614.56	30.656
0	153	619.349	13.482
0	161	640.732	0
0	178	699.101	0
0	181	703.439	0
0	196	787.672	0
0	205	896.203	0
0	212	954.831	0
0	216	977.724	0
0	218	982.475	0
0	223	999.574	0
0	225	1005.792	0
0	243	1116.087	0
0	246	1129.275	0
0	258	1201.887	0
0	261	1226.312	0
0	265	1232.707	0
0	281	1318.329	0
0	287	1386.295	0
0	290	1392.177	0
0	292	1393.436	0
0	297	1420.497	0
0	299	1421.804	0
0	308	1467.906	0
0	313	1515.532	0
0	315	1515.861	0
0	319	1517.318	0.514
0	326	1557.324	20.886
0	347	1648.328	0
0	352	1699.643	0
0	359	1727.387	0
0	361	1729.59	0
0	377	1830.923	0
0	389	1942.144	0
0	392	1963.995	0
0	400	2034.595	0
0	403	2038.36	0
0	407	2062.499	0
0	413	2074.594	0
0	417	2084.135	0
0	426	2145.31	0
0	434	2164.843	0
0	438	2184.785	0
0	444	2192.186	0
0	449	2213.574	0
0	451	2215.061	0
0	464	2277.274	0
0	468	2314.683	0
0	484	2368.063	0
0	487	2382.493	0
0	498	2423.944	0
0	501	2438.543	0
0	511	2480.979	0
0	514	2488.532	0
0	520	2518.379	0
0	525	2536.372	0
0	528	2556.09	0
0	534	2575.922	0
0	546	2693.63	0
0	548	2696.486	0
0	555	2707.266	0
0	561	2730.386	0
0	567	2764.376	0
0	570	2768.316	0
0	572	2769.939	0
0	587	2834.379	0
0	590	2858.598	0
0	595	2881.188	0
0	607	2954.081	0
0	610	2956.168	0
0	615	2975.98	0
0	617	2980.545	0
0	622	2995.44	0
0	631	3007.365	5.347
0	639	3056.737	50.755
0	644	3071.629	0
0	652	3115.688	27.891
0	656	3119.922	1.712
0	668	3158.149	0
0	676	3197.73	0
0	681	3206.809	0
0	683	3216.466	0
0	686	3228.154	0
0	699	3259.885	24.283
0	706	3297.51	48.049
0	710	3300.869	48.759
0	718	3350.245	67.256
0	720	3352.317	47.178
0	738	3466.344	0
0	743	3476.654	0
0	745	3479.198	0
0	758	3549.187	0
0	760	3549.801	0
0	770	3640.096	0
0	773	3651.506	0
0	777	3673.69	0
0	783	3689.991	0
0	789	3715.158	0
0	800	3751.14	0
0	802	3751.374	0
0	813	3815.148	0
0	831	3918.295	0
0	836	3928.574	0
0	839	3939.521	0
0	851	4025.009	0
0	853	4029.374	0
0	859	4052.463	0
0	861	4055.232	0
0	876	4108.648	0
0	879	4130.812	0
0	881	4135.408	0
0	887	4165.109	0
0	892	4172.772	0
0	899	4181.882	0
0	908	4206.681	0
0	914	4229.892	0
0	921	4262.853	0
0	931	4285.398	0
0	935	4305.287	0
0	940	4310.33	0
0	945	4328.903	0
0	947	4331.222	0
0	960	4391.382	0
0	965	4413.71	0
0	973	4450.914	0
0	978	4464.825	0
0	982	4499.079	0
0	986	4509.022	0
0	989	4517.411	0
0	1000	4551.724	0
0	1008	4575.362	0
0	1012	4576.97	0
0	1014	4577.203	0
0	1024	4631.568	0
0	1035	4672.023	0
0	1043	4733.197	0
0	1047	4750.905	0
0	1055	4786.354	0
0	1066	4826.022	0
0	1069	4839.651	0
0	1079	4901.194	0
0	1082	4904.016	0
0	1087	4935.975	0
0	1090	4944.497	0
0	1092	4949.425	0
0	1097	4967.957	0
0	1101	4975.901	0
0	1113	5004.974	0
0	1132	5084.118	0
0	1136	5108.942	0
0	1143	5147.561	0
0	1154	5187.858	0
0	1161	5273.454	0
0	1165	5282.878	0
0	1167	5284.153	0
0	1169	5285.776	0
0	1187	5372.427	0
0	1195	5409.709	0
0	1198	5431.53	0
0	1203	5460.629	0
0	1209	5478.994	0
0	1217	5525.917	0
0	1220	5538.201	0
0	1225	5554.734	0
0	1234	5588.943	0
0	1241	5603.534	0
0	1247	5622.888	0
0	1250	5637.371	0
0	1254	5640.982	0
0	1259	5659.1	0
0	1261	5660.679	0
0	1267	5696.519	0
0	1285	5769.695	0
0	1288	5771.766	0
0	1293	5781.449	0
0	1312	5990.206	0
0	1317	6002.567	0
0	1319	6005.603	0
0	1322	6014.948	0
0	1331	6066.541	0
0	1340	6106.6	0
0	1347	6130.817	0
0	1357	6206.613	0
0	1360	6219.684	0
0	1366	6240.787	0
0	1370	6256.062	0
0	1379	6336.6	0
0	1382	6354.761	0
0	1385	6360.202	0
0	1392	6381.844	0
0	1403	6462.318	0
0	1414	6523.716	0
0	1421	6534.528	0
0	1424	6538.923	0
0	1429	6563.805	0
0	1434	6592.268	0
0	1446	6623.021	0
0	1456	6666.05	0
0	1459	6672.75	0
0	1462	6687.3	0
0	1469	6699.315	0
0	1479	6741.158	0
0	1484	6754.712	0
0	1490	6802.847	0
0	1497	6823.281	0
0	1499	6824.667	0
0	1509	6877.391	0
0	1518	6943.74	0
0	1521	6953.63	0
0	1523	6959.287	0
0	1527	6969.207	0
0	1535	7017.143	0
0	1542	7034.53	0
0	1545	7045.501	0
0	1554	7069.391	0
0	1570	7188.666	0
0	1573	7195.136	0
0	1578	7217.463	0
0	1584	7230.692	0
0	1590	7246.849	0
0	1601	7307.616	0
0	1604	7314.716	0
0	1616	7377.791	0
0	1624	7446.68	0
0	1639	7539.069	0
0	1642	7559.367	0
0	1648	7604.479	0
0	1654	7634.038	0
0	1657	7640.188	0
0	1662	7675.203	0
0	1665	7679.845	0
0	1669	7687.122	0
0	1676	7719.536	0
0	1680	7727.296	0
0	1686	7754.155	0
0	1690	7774.028	0
0	1707	7845.587	0
0	1710	7853.674	0
0	1720	7900.439	0
0	1736	7981.097	0
0	1741	8058.275	0
0	1748	8109.366	0
0	1751	8125.548	0
0	1759	8182.119	0
0	1762	8216.075	0
0	1772	8259.6	0
0	1775	8274.228	0
0	1780	8294.509	0
0	1790	8325.855	0
0	1798	8386.364	0
0	1800	8387.683	0
0	1807	8423.812	0
0	1811	8442.561	0
0	1813	8449.228	0
0	1821	8465.731	0
0	1832	8549.694	0
0	1839	8572.055	0
0	1841	8576.498	0
0	1845	8580.645	0
0	1848	8583.48	0
0	1852	8595.843	0
0	1858	8610.492	0
0	1866	8617.757	3.456
0	1868	8619.096	1.456
0	1882	8657.987	12.905
0	1892	8707.705	38.589
0	1898	8740.555	51.085
0	1901	8750.413	44.548
0	1908	8757.932	18.665
0	1916	8785.706	31.946
0	1921	8803.787	48.384
0	1923	8811.191	52.665
0	1931	8831.946	0
0	1938	8856.659	0
0	1943	8871.624	0
0	1953	8896.33	0
0	1969	9052.805	0
0	1980	9087.409	0
0	1985	9101.641	0
0	1997	9176.181	0
0	2001	9202.601	0
0	2005	9219.066	0
0	2010	9241.45	0
0	2016	9266.575	0
0	2020	9287.743	0
0	2033	9387.259	0
0	2038	9417.935	0
0	2049	9485.195	0
0	2052	9489.382	0
0	2054	9489.467	0
0	2064	9586.522	0
0	2069	9598.895	0
0	2078	9642.999	0
0	2081	9648.301	0
0	2085	9660.982	0
0	2093	9685.243	0
0	2099	9697.556	0
0	2110	9776.819	0
0	2114	9785.394	0
0	2117	9803.148	0
0	2128	9874.226	0
0	2137	9947.162	0
0	2150	10018.817	0
0	2157	10064.957	0
0	2161	10083.719	0
0	2164	10095.825	0
0	2173	10143.254	0
0	2183	10211.439	0
0	2186	10223.068	0
0	2188	10227.225	0
0	2196	10240.573	0
0	2199	10243.67	0
0	2204	10260.169	0
0	2212	10272.994	0
0	2220	10312.034	0
0	2224	10320.661	0
0	2229	10339.082	0
0	2232	10345.502	0
0	2245	10478.233	0
0	2248	10480.521	0
0	2258	10505.048	0
0	2264	10545.654	0
0	2270	10569.39	0
0	2273	10574.069	0
0	2279	10592.478	0
0	2281	10595.844	0
0	2302	10758.496	0
0	2319	10879.945	0
0	2324	10925.315	0
0	2327	10954.556	0
0	2335	10997.732	0
0	2344	11075.476	0
0	2351	11140.815	0
0	2354	11151.504	0
0	2357	11158.393	0
0	2368	11206.336	0
0	2374	11235.578	0
0	2384	11321.53	0
0	2387	11323.741	0
0	2391	11348.9	0
0	2394	11354.207	0
0	2403	11398.166	0
0	2411	11441.34	0
0	2420	11475.764	0
0	2423	11483.756	0
0	2426	11501.896	0
0	2430	11518.576	0
0	2445	11564.763	0
0	2451	11584.507	0
0	2457	11608.029	0
0	2469	11677.541	0
0	2472	11691.758	0
0	2476	11700.735	0
0	2480	11714.863	0
0	2492	11852.314	0
0	2495	11863.982	0
0	2502	11894.492	0
0	2506	11916.579	0
0	2508	11916.706	0
0	2513	11933.243	0
0	2525	11978.76	0
0	2531	12007.947	0
0	2533	12014.158	0
0	2540	12039.132	0
0	2543	12045.922	0
0	2570	12285.098	0
0	2573	12291.383	0
0	2577	12312.759	0
0	2582	12327.168	0
0	2585	12341.623	0
0	2587	12345.88	0
0	2601	12386.892	0
0	2611	12476.642	0
0	2623	12547.125	0
0	2626	12550.755	0
0	2628	12553.759	0
0	2631	12556.943	0
0	2636	12583.063	0
0	2648	12612	0
0	2651	12617.245	0
0	2660	12671.547	0
0	2663	12681.003	0
0	2666	12701.333	0
0	2669	12716.817	0
0	2688	12807.14	0
0	2699	12861.711	0
0	2704	12906.131	0
0	2715	12974.741	0
0	2720	13033.353	0
0	2727	13063.622	0
0	2735	13108.72	0
0	2738	13116.389	0
0	2743	13132.018	0
0	2757	13268.113	0
0	2762	13285.084	0
0	2770	13352.818	0
0	2773	13355.243	0
0	2775	13360.911	0
0	2780	13382.472	0
0	2792	13414.842	0
0	2801	13505.605	0
0	2804	13530.788	0
0	2808	13548.348	0
0	2816	13597.614	0
0	2820	13620.078	0
0	2828	13643.224	0
0	2834	13685.973	0
0	2837	13702.052	0
0	2839	13715.335	0
0	2846	13734.558	0
0	2858	13768.239	0
0	2862	13782.592	0
0	2867	13797.994	0
0	2872	13805.895	0
0	2888	13871.191	0
0	2899	13931.77	0
0	2904	13983.682	0
0	2907	13998.753	0
0	2910	14012.996	0
0	2912	14016.569	0
0	2921	14046.07	0
0	2925	14053.771	0
0	2933	14069.227	0
0	2936	14075.2	0
0	2938	14077.494	0
0	2952	14146.392	0
0	2958	14161.823	0
0	2964	14193.642	0
0	2970	14209.909	0
0	2978	14253.881	0
0	2981	14262.328	0
0	2988	14301.662	0
0	2997	14341.405	0
0	3000	14344.548	0
0	3012	14394.49	0
0	3015	14397.203	0
0	3019	14404.169	0
0	3022	14412.293	0
0	3037	14464.249	0
0	3039	14469.928	0
0	3045	14491.995	0
0	3053	14511.849	0
0	3063	14547.386	0
0	3066	14550.224	0
0	3072	14560.571	0
0	3087	14629.643	0
0	3094	14673.78	0
0	3097	14682.804	0
0	3101	14701.719	0
0	3103	14710.798	0
0	3109	14732.967	0
0	3111	14733.225	0
0	3131	14834.487	0
0	3133	14835.071	0
0	3144	14867.194	0
0	3156	14931.235	0
0	3160	14946.521	0
0	3167	14980.744	0
0	3170	14991.249	0
0	3177	15007.938	0
0	3182	15032.016	0
0	3190	15107.13	0
0	3194	15134.262	0
0	3204	15185.011	0
0	3216	15237.488	0
0	3220	15244.695	0
0	3225	15291.237	0
0	3227	15291.514	0
0	3232	15304.07	0
0	3240	15328.086	0
0	3253	15487.051	0
0	3255	15487.457	0
0	3261	15500.177	0
0	3266	15514.024	0
0	3268	15514.327	0
0	3278	15544.109	0
0	3283	15551.257	0
0	3294	15584.632	0
0	3301	15604.597	0
0	3303	15606.255	0
0	3310	15629.536	0
0	3327	15705.418	0
0	3331	15724.183	0
0	3335	15745.668	0
0	3341	15836.23	0
0	3346	15845.239	0
0	3352	15870.07	0
0	3361	15885.01	0
0	3368	15918.277	0
0	3378	15995.114	0
0	3381	16004.991	0
0	3384	16017.128	0
0	3386	16018.041	0
0	3391	16029.35	0
0	3406	16072.133	0
0	3419	16193.17	0
0	3426	16223.71	0
0	3434	16284.256	0
0	3439	16350.673	0
0	3446	16363.599	0
0	3449	16379.729	0
0	3457	16416.583	0
0	3467	16473.044	0
0	3474	16508.165	0
0	3476	16509.536	0
0	3481	16546.487	0
0	3486	16562.4	0
0	3488	16569.611	0
0	3493	16591.213	0
0	3507	16625.176	0
0	3511	16637.699	0
0	3516	16656.366	0
0	3521	16677.429	0
0	3531	16722.295	0
0	3534	16730.442	0
0	3542	16777.87	0
0	3545	16786.666	0
0	3553	16812.293	0
0	3558	16827.8	0
0	3562	16840.204	0
0	3579	16904.646	0
0	3585	16932.898	0
0	3589	16955.424	0
0	3591	16957.234	0
0	3597	16980.715	0
0	3606	17014.477	0
0	3613	17041.984	0
0	3621	17120.454	0
0	3626	17129.372	0
0	3628	17134.17	0
0	3638	17185.547	0
0	3643	17195.302	0
0	3645	17195.578	0
0	3648	17206.292	0
0	3660	17254.144	39.035
0	3666	17262.853	11.586
0	3668	17268.646	9.178
0	3681	17314.989	0
0	3685	17320.265	0
0	3688	17328.23	0
0	3712	17460.917	0
0	3718	17518.042	0
0	3731	17681.93	0
0	3734	17686.043	0
0	3742	17739.749	0
0	3745	17748.906	0
0	3747	17749.795	0
0	3761	17805.071	0
0	3764	17808.308	0
0	3766	17809.589	0
0	3773	17831.174	0
0	3777	17841.388	0
0	3785	17871.278	0
0	3796	17970.105	0
0	3801	17997.837	0
0	3809	18006.942	0
0	3817	18072.421	0
0	3824	18090.723	0
0	3829	18099.738	0
0	3838	18178.716	0
0	3842	18210.325	0
0	3847	18214.572	0
0	3849	18218.492	0
0	3857	18247.716	0
0	3865	18283.481	0
0	3870	18314.685	0
0	3873	18323.878	0
0	3879	18354.959	0
0	3895	18431.764	0
0	3898	18441.15	0
0	3901	18453.319	0
0	3903	18458.129	0
0	3908	18471.159	0
0	3910	18474.869	0
0	3925	18540.989	0
0	3932	18561.828	0
0	3934	18575.57	0
0	3943	18600.471	0
0	3945	18600.569	0
0	3966	18692.979	0
0	3969	18711.46	0
0	3973	18721.412	0
0	3975	18725.895	0
0	3979	18733.811	0
0	3990	18772.422	0
0	3993	18777.78	0
0	4009	18850.978	0
0	4012	18859.2	0
0	4015	18871.581	0
0	4019	18896.099	0
0	4025	18940.06	0
0	4032	18954.202	0
0	4037	18974.13	0
0	4048	19001.57	0
0	4060	19051.871	0
0	4062	19053.533	0
0	4070	19066.702	0
0	4072	19071.408	0
0	4085	19105.035	0
0	4098	19177.834	0
0	4104	19210.535	0
0	4107	19226.876	0
0	4115	19285.035	0
0	4122	19335.6	0
0	4124	19337.124	0
0	4129	19344.303	0
0	4135	19379.694	0
0	4140	19417.804	0
0	4148	19436.683	0
0	4152	19453.057	0
0	4158	19470.322	0
0	4160	19472.115	0
0	4168	19498.347	0
0	4173	19511.004	0
0	4182	19548.014	0
0	4193	19575.242	0
0	4199	19586.899	0
0	4203	19589.834	0
0	4208	19619.088	0
0	4211	19621.908	0
0	4214	19623.685	0
0	4222	19662.739	0
0	4227	19668.602	1.159
0	4236	19684.346	0
0	4243	19720.899	1.331
0	4251	19739.875	0
0	4255	19743.548	0
0	4261	19768.846	0
0	4270	19779.627	0
0	4291	19843.321	0
0	4303	19935.613	0
0	4308	19981.953	0
0	4314	20037.064	0
0	4318	20060.639	0
0	4328	20104.174	0
0	4330	20104.614	0
0	4334	20111.44	0
0	4337	20124.208	0
0	4339	20133.405	0
0	4357	20208.321	0
0	4360	20218.568	0
0	4365	20246.826	0
0	4369	20260.103	0
0	4371	20267.102	0
0	4374	20277.973	0
0	4384	20317.464	0
0	4388	20324.453	0
0	4398	20342.945	0
0	4408	20428.583	0
0	4411	20437.485	0
0	4415	20442.57	0
0	4432	20546.496	0
0	4442	20658.362	0
0	4447	20672.64	0
0	4456	20784.153	0
0	4461	20828.117	0
0	4468	20861.676	0
0	4472	20879.309	0
0	4475	20885.465	0
0	4478	20888.22	0
0	4491	20990.008	0
0	4500	21023.462	0
0	4503	21029.04	0
0	4506	21035.433	0
0	4508	21036.327	0
0	4511	21048.374	0
0	4526	21118.798	0
0	4532	21129.513	0
0	4539	21155.187	0
0	4554	21221.971	0
0	4557	21230.757	0
0	4564	21266.74	0
0	4574	21312.333	0
0	4579	21343.776	0
0	4584	21375.032	0
0	4592	21438.217	0
0	4597	21453.479	0
0	4603	21499.934	0
0	4608	21524.532	0
0	4620	21604.371	0
0	4625	21613.013	0
0	4632	21657.645	0
0	4638	21673.039	0
0	4640	21675.803	0
0	4645	21695.195	0
0	4652	21719.513	0
0	4657	21750.421	0
0	4662	21761.438	0
0	4670	21797.475	0
0	4674	21804.156	0
0	4676	21807.882	0
0	4687	21838.079	0
0	4703	21923.5	0
0	4706	21928.451	0
0	4712	21937.4	0
0	4716	21947.777	0
0	4721	21962.682	0
0	4731	22041.866	0
0	4749	22206.144	0
0	4760	22260.836	0
0	4765	22342.705	0
0	4770	22389.15	0
0	4777	22477.643	0
0	4783	22505.237	0
0	4787	22530.062	0
0	4791	22536.174	0
0	4795	22540.361	0
0	4800	22562.557	0
0	4810	22586.415	0
0	4814	22613.549	0
0	4821	22635.048	0
0	4826	22644.667	0
0	4830	22652.807	0
0	4832	22666.579	0
0	4844	22702.795	0
0	4860	22768.089	0
0	4868	22820.296	0
0	4870	22822.594	0
0	4881	22914.142	0
0	4891	23004.774	0
0	4896	23041.191	0
0	4899	23060.193	0
0	4904	23069.12	0
0	4913	23108.287	0
0	4916	23114.773	0
0	4921	23125.659	0
0	4930	23201.705	0
0	4935	23215.154	0
0	4939	23236.442	0
0	4944	23256.686	0
0	4949	23276.097	0
0	4958	23318.362	0
0	4961	23326.162	0
0	4968	23341.174	0
0	4981	23388.721	0
0	4990	23401.736	0
0	4993	23418.579	0
0	5004	23446.193	0
0	5009	23464.818	0
0	5017	23495.625	0
0	5026	23584.356	0
0	5029	23590.673	0
0	5032	23611.179	0
0	5045	23664.922	0
0	5050	23700.507	0
0	5053	23706.034	0
0	5056	23714.897	0
0	5067	23819.104	0
0	5071	23835.299	0
0	5077	23853.42	0
0	5087	23918.157	0
0	5096	24016.376	0
0	5103	24024.531	0
0	5106	24040.975	0
0	5110	24057.647	0
0	5120	24081.509	0
0	5123	24087.267	0
0	5129	24104.607	0
0	5133	24115.979	0
0	5141	24151.292	0
0	5143	24155.757	0
0	5157	24220.59	0
0	5162	24235.604	0
0	5169	24272.066	0
0	5177	24324.027	0
0	5180	24340.133	0
0	5192	24385.061	0
0	5197	24396.193	0
0	5205	24452.467	0
0	5208	24462.616	0
0	5224	24534.256	0
0	5227	24539.853	0
0	5232	24571.629	0
0	5241	24640.576	0
0	5243	24644.469	0
0	5254	24697.262	0
0	5256	24698.858	0
0	5259	24705.985	0
0	5261	24706.044	0
0	5276	24784.387	0
0	5280	24785.61	0
0	5286	24810.515	0
0	5288	24811.466	0
0	5303	24861.264	0
0	5306	24867.017	0
0	5314	24919.843	0
0	5317	24945.878	0
0	5324	24976.133	0
0	5338	25027.674	0
0	5343	25092.912	0
0	5348	25110.227	0
0	5362	25204.73	0
0	5365	25224.561	0
0	5369	25248.136	0
0	5371	25252.275	0
0	5379	25275.735	0
0	5384	25296.562	0
0	5388	25309.227	0
0	5394	25326.765	0
0	5402	25346.228	0
0	5406	25354.21	0
0	5408	25359.434	0
0	5413	25372.057	0
0	5418	25377.713	0
0	5427	25395.215	0
0	5430	25398.992	0
0	5442	25434.661	0
0	5459	25545.534	0
0	5461	25548.432	0
0	5471	25579.813	0
0	5477	25610.953	0
0	5481	25619.794	0
0	5484	25629.435	0
0	5497	25671.749	0
0	5509	25767.664	0
0	5517	25815.966	0
0	5526	25878.043	0
0	5529	25889.055	0
0	5539	25945.714	0
0	5542	25956.18	0
0	5556	26102.987	0
0	5559	26129.155	0
0	5562	26134.362	0
0	5566	26147.359	0
0	5568	26150.984	0
0	5573	26161.581	0
0	5580	26181.682	0
0	5585	26192.045	0
0	5589	26203.241	0
0	5600	26264.539	0
0	5604	26270.927	0
0	5606	26278.424	0
0	5610	26280.783	0
0	5613	26290.354	0
0	5630	26386.303	0
0	5632	26396.027	0
0	5647	26476.795	0
0	5650	26512.384	0
0	5655	26518.395	0
0	5658	26522.961	0
0	5668	26578.694	0
0	5682	26676.148	0
0	5685	26690.496	0
0	5687	26696.529	0
0	5694	26730.877	0
0	5697	26740.017	0
0	5707	26778.351	0
0	5713	26811.058	0
0	5720	26826.169	0
0	5722	26836.322	0
0	5727	26844.339	0
0	5733	26859.421	0
0	5739	26869.974	6.204
0	5754	26912.833	0
0	5763	26970.314	0
0	5765	26977.649	0
0	5770	26981.932	0
0	5776	27006.863	0
0	5792	27064.969	0
0	5794	27067.243	0
0	5803	27155.16	0
0	5809	27181.28	0
0	5811	27188.827	0
0	5823	27249.351	0
0	5828	27304.077	0
0	5837	27362.41	0
0	5839	27363.859	0
0	5852	27445.85	0
0	5859	27488.707	0
0	5861	27489.397	0
0	5863	27490.287	0
0	5866	27501.337	0
0	5879	27542.88	0
0	5888	27589.657	0
0	5890	27590.552	0
0	5894	27594.518	0
0	5896	27594.612	0
0	5907	27635.942	0
0	5912	27647.773	0
0	5919	27664.59	5.57
0	5940	27742.487	0
0	5951	27822.484	0
0	5955	27846.973	0
0	5957	27847.223	0
0	5959	27847.569	0
0	5965	27861.058	0
0	5973	27911.172	0
0	5984	27963.28	0
0	5987	27969.304	0
0	5989	27970.619	0
0	5991	27975.199	0
0	5994	27980.115	0
0	5999	27997.673	0
0	6012	28029.473	0
0	6014	28033.645	0
0	6021	28039.664	0
0	6030	28082.061	0
0	6039	28111.451	0
0	6059	28219.039	0
0	6064	28229.326	0
0	6067	28247.046	0
0	6069	28249.567	0
0	6072	28252.674	0
0	6075	28254.324	0
0	6086	28283.034	0
0	6089	28286.526	0
0	6105	28326.032	0
0	6112	28387.433	0
0	6114	28395.988	0
0	6119	28397.744	0
0	6133	28451.509	0
0	6143	28594.54	0
0	6152	28667.563	0
0	6156	28686.314	0
0	6166	28752.01	0
0	6169	28759.681	0
0	6172	28767.436	0
0	6184	28820.257	0
0	6186	28822.195	0
0	6193	28867.77	0
0	6198	28904.781	0
0	6205	28924.578	0
0	6218	29044.743	0
0	6229	29140.371	0
0	6237	29229.847	0
0	6240	29243.338	0
0	6249	29340.234	0
0	6257	29407.179	0
0	6260	29428.511	0
0	6264	29453.5	0
0	6271	29474.423	0
0	6274	29481.723	0
0	6281	29537.305	0
0	6290	29567.569	0
0	6295	29600.969	0
0	6298	29606.857	0
0	6302	29636.995	0
0	6318	29719.212	0
0	6327	29774.766	0
0	6332	29793.544	0
0	6340	29840.265	0
0	6343	29847.752	0
0	6348	29864.167	0
0	6352	29877.389	0
0	6358	29904.271	0
0	6366	29925.191	0
0	6374	29945.451	0
0	6388	30019.953	0
0	6393	30047.384	0
0	6395	30048.769	0
0	6403	30100.917	0
0	6407	30127.838	0
0	6415	30207.307	0
0	6422	30217.983	0
0	6430	30257.956	0
0	6432	30261.524	0
0	6435	30269.361	0
0	6439	30282.392	0
0	6441	30285.049	0
0	6448	30308.564	0
0	6450	30310.121	0
0	6457	30326.625	4.236
0	6474	30385.71	0
0	6481	30437.58	0
0	6483	30439.13	0
0	6489	30455.669	0
0	6495	30475.32	0
0	6517	30601.975	0
0	6522	30623.129	0
0	6526	30635.979	0
0	6532	30679.258	0
0	6535	30702.606	0
0	6538	30715.912	0
0	6544	30745.55	0
0	6552	30763.391	0
0	6559	30778.218	0
0	6570	30831.739	0
0	6576	30847.287	0
0	6580	30871.279	0
0	6583	30885.549	0
0	6586	30887.726	0
0	6588	30892.296	0
0	6597	30935.604	0
0	6612	30983.526	0
0	6627	31102.711	0
0	6630	31124.243	0
0	6633	31136.325	0
0	6636	31139.365	0
0	6642	31150.774	0
0	6656	31228.758	0
0	6665	31280.649	0
0	6672	31367.019	0
0	6676	31386.341	0
0	6683	31425.241	0
0	6685	31430.278	0
0	6690	31464.886	0
0	6693	31468.261	0
0	6701	31517.959	0
0	6714	31601.682	0
0	6721	31668.699	0
0	6723	31673.476	0
0	6730	31697.824	0
0	6742	31738.017	0
0	6753	31801.157	0
0	6756	31804.064	0
0	6761	31822.484	0
0	6766	31846.94	0
0	6768	31857.543	0
0	6775	31869.308	0
0	6779	31882.648	0
0	6784	31897.134	0
0	6797	31942.339	0
0	6799	31945.146	0
0	6817	32083.315	0
0	6822	32123.265	0
0	6831	32163.081	0
0	6834	32165.184	0
0	6837	32187.324	0
0	6851	32312.409	0
0	6856	32330.761	0
0	6858	32333.627	0
0	6866	32378.477	0
0	6868	32384.788	0
0	6876	32410.382	0
0	6881	32441.984	0
0	6892	32481.903	0
0	6895	32487.904	0
0	6912	32544.132	0
0	6915	32564.336	0
0	6917	32564.351	0
0	6919	32567.575	0
0	6933	32624.06	0
0	6936	32632.034	0
0	6942	32648.849	0
0	6947	32685.062	0
0	6949	32685.992	0
0	6952	32692.991	0
0	6957	32699.405	0
0	6963	32721.911	0
0	6977	32766.108	0
0	6983	32785.844	0
0	6985	32789.169	0
0	6988	32798.378	0
0	6998	32829.861	26.67
0	7007	32879.624	0
0	7019	32971.364	0
0	7031	33041.348	0
0	7035	33072.717	0
0	7042	33114.833	0
0	7048	33136.586	0
0	7052	33140.433	0
0	7059	33165.444	0
0	7063	33177.679	0
0	7071	33218.224	0
0	7074	33223.419	0
0	7091	33296.754	0
0	7095	33301.998	0
0	7100	33319.628	0
0	7103	33329.296	0
0	7112	33348.226	0
0	7115	33353.662	0
0	7124	33384.748	0
0	7130	33428.61	0
0	7132	33436.993	0
0	7136	33439.337	0
0	7146	33481.048	0
0	7153	33535.373	0
0	7158	33542.76	0
0	7160	33546.393	0
0	7176	33626.056	0
0	7185	33639.925	0
0	7188	33651.214	0
0	7190	33654.115	0
0	7203	33709.577	0
0	7213	33797.877	0
0	7216	33828.066	0
0	7221	33834.458	0
0	7224	33836.381	0
0	7233	33863.5	0
0	7236	33865.68	0
0	7239	33874.315	0
0	7243	33877.603	0
0	7246	33881.076	0
0	7267	33932.17	0
0	7269	33932.533	0
0	7273	33947.153	0
0	7284	33997.7	0
0	7289	34005.62	0
0	7297	34044.399	0
0	7302	34074.545	0
0	7311	34114.347	0
0	7316	34120.155	0
0	7325	34181.003	0
0	7332	34208.377	0
0	7334	34214.251	0
0	7338	34220.894	0
0	7340	34224.892	0
0	7342	34225.608	0
0	7350	34239.417	0
0	7366	34279.18	0
0	7377	34310.197	0
0	7380	34313.296	0
0	7388	34347.305	0
0	7394	34354.532	0
0	7397	34367.086	0
0	7399	34370.67	0
0	7408	34401.103	0
0	7410	34407.9	0
0	7421	34460.357	0
0	7423	34466.002	0
0	7428	34474.243	0
0	7438	34512.191	0
0	7445	34532.968	0
0	7453	34565.021	0
0	7461	34609.569	0
0	7469	34641.112	0
0	7477	34667.294	0
0	7486	34687.341	0
0	7496	34767.15	0
0	7509	34881.013	0
0	7512	34908.221	0
0	7517	34936.627	0
0	7527	35039.738	0
0	7531	35064.829	0
0	7533	35067.526	0
0	7535	35067.744	0
0	7543	35088.368	0
0	7552	35120.044	0
0	7556	35123.998	0
0	7566	35182.659	0
0	7569	35210.985	0
0	7571	35212.331	0
0	7576	35222.255	0
0	7582	35245.938	0
0	7591	35263.646	0
0	7601	35295.778	0
0	7604	35301.544	0
0	7610	35317.473	0
0	7617	35342.861	0
0	7623	35376.77	0
0	7627	35379.835	0
0	7637	35425.603	0
0	7640	35441.488	0
0	7647	35483.388	0.733
0	7657	35519.246	16.613
0	7662	35543.647	24.992
0	7669	35581.306	62.177
0	7673	35588.457	35.669
0	7679	35619.144	24.693
0	7695	35682.936	0
0	7700	35689.63	0
0	7704	35707.333	0
0	7708	35721.261	0
0	7711	35724.139	0
0	7713	35728.202	0
0	7731	35807.489	0
0	7740	35870.916	0
0	7742	35871.409	0
0	7749	35885.776	0
0	7756	35912.904	0
0	7758	35914.137	0
0	7760	35920.458	0
0	7780	36008.212	0
0	7783	36029.825	0
0	7787	36044.934	0
0	7792	36065.25	0
0	7806	36127.302	0
0	7816	36172.928	0
0	7830	36288.352	0
0	7833	36291.587	0
0	7839	36327.748	0
0	7842	36335.259	0
0	7845	36356.358	0
0	7847	36356.842	0
0	7856	36384.632	0
0	7867	36439.646	0
0	7873	36474.897	0
0	7883	36562.928	0
0	7888	36589.847	0
0	7896	36617.074	0
0	7906	36667.564	0
0	7911	36685.484	0
0	7917	36734.869	0
0	7920	36760.278	0
0	7930	36808.381	0
0	7937	36852.475	0
0	7940	36867.091	0
0	7948	36926.133	0
0	7955	36965.999	0
0	7960	36993.585	0
0	7962	36997.16	0
0	7965	37000.781	0
0	7983	37110.559	0
0	7990	37172.021	0
0	8000	37259.886	0
0	8004	37275.828	0
0	8007	37289.276	0
0	8009	37293.359	0
0	8013	37299.403	0
0	8016	37312.137	0
0	8027	37356.839	0
0	8034	37388.826	0
0	8038	37390.578	0
0	8042	37405.979	0
0	8054	37454.79	0
0	8063	37477.535	0
0	8066	37486.458	0
0	8069	37493.334	0
0	8081	37559.882	0
0	8087	37588.031	0
0	8093	37608.399	0
0	8097	37610.232	0
0	8103	37626.248	0
0	8118	37723.477	0
0	8121	37733.883	0
0	8127	37745.18	0
0	8141	37814.302	0
0	8146	37833.674	0
0	8153	37866.512	0
0	8157	37884.378	0
0	8169	37928.006	0
0	8174	37943.631	0
0	8176	37945.915	0
0	8188	38025.082	0
0	8193	38068.929	0
0	8204	38150.562	0
0	8212	38260.445	0
0	8219	38339.396	0
0	8226	38389.993	0
0	8231	38410.531	0
0	8237	38463.137	0
0	8239	38463.156	0
0	8241	38469.002	0
0	8243	38470.276	0
0	8251	38510.181	0
0	8261	38536.397	0
0	8265	38539.811	0
0	8269	38553.062	0
0	8279	38633.276	0
0	8287	38676.901	0
0	8289	38677.333	0
0	8299	38707.118	0
0	8304	38728.579	0
0	8306	38733.286	0
0	8312	38739.899	0
0	8324	38793.244	0
0	8327	38797.549	0
0	8331	38805.857	0
0	8339	38835.307	0
0	8353	38872.758	0
0	8358	38915.219	0
0	8364	38950.793	0
0	8374	38977.121	0
0	8382	39008.007	0
0	8386	39016.317	0
0	8388	39026.094	0
0	8393	39040.368	0
0	8395	39049.161	0
0	8402	39071.269	0
0	8409	39113.309	41.807
0	8416	39142.35	0
0	8420	39147.728	2.435
0	8433	39250.796	0
0	8438	39262.125	0
0	8446	39302.414	0
0	8458	39351.332	0
0	8461	39356.348	0
0	8476	39457.749	0
0	8482	39483.306	0
0	8486	39507.009	0
0	8492	39517.603	0
0	8504	39636.238	0
0	8511	39679.746	0
0	8516	39702.96	0
0	8524	39765.805	0
0	8533	39821.355	0
0	8536	39832.974	0
0	8545	39928.847	0
0	8550	40016.278	0
0	8558	40037.873	0
0	8566	40065.608	0
0	8568	40066.349	0
0	8578	40114.897	0
0	8581	40135.336	0
0	8586	40170.567	0
0	8591	40180.525	0
0	8599	40247.335	0
0	8606	40309.522	0
0	8611	40347.44	0
0	8623	40387.372	0
0	8627	40399.716	0
0	8633	40402.705	0
0	8637	40412.633	0
0	8639	40419.386	0
0	8650	40458.199	0
0	8654	40466.145	0
0	8664	40517.432	0
0	8673	40574.638	0
0	8675	40575.087	0
0	8678	40578.419	0
0	8684	40597.231	0
0	8693	40616.275	0
0	8705	40685.235	0
0	8708	40691.061	0
0	8712	40693.374	0
0	8721	40722.873	0
0	8730	40765.953	0
0	8736	40856.925	0
0	8743	40899.078	0
0	8754	40940.449	0
0	8763	40998.841	0
0	8770	41065.471	0
0	8772	41066.987	0
0	8778	41084.346	0
0	8784	41098.007	0
0	8790	41130.07	0
0	8792	41131.626	0
0	8795	41135.32	0
0	8797	41138.339	0
0	8806	41154.595	0
0	8811	41157.452	0
0	8819	41182.922	0
0	8836	41292.643	0
0	8839	41318.417	0
0	8841	41323.47	0
0	8849	41352.477	0
0	8856	41378.076	0
0	8858	41378.462	0
0	8860	41381.398	0
0	8872	41412.855	0
0	8882	41433.411	0
0	8889	41468.29	0
0	8893	41477.257	0
0	8907	41509.574	0
0	8912	41533.951	0
0	8916	41551.239	0
0	8928	41617.314	0
0	8930	41618.278	0
0	8944	41756.819	0
0	8950	41770.371	0
0	8952	41771.501	0
0	8956	41785.49	0
0	8960	41799.409	0
0	8972	41869.351	0
0	8982	41970.741	0
0	8997	42094.333	0
0	9002	42139.81	0
0	9007	42197.936	0
0	9017	42302.571	0
0	9020	42321.643	0
0	9023	42331.402	0
0	9025	42332.559	0
0	9027	42333.656	0
0	9032	42345.055	0
0	9035	42354.932	0
0	9058	42490.786	0
0	9061	42505.896	0
0	9064	42521.308	0
0	9073	42562.986	0
0	9087	42622.943	0
0	9093	42658.568	0
0	9099	42689.113	0
0	9103	42699.068	0
0	9111	42744.066	0
0	9114	42756.059	0
0	9128	42807.328	0
0	9136	42900.25	0
0	9138	42902.944	0
0	9142	42912.616	0
0	9144	42916.474	0
0	9150	42945.397	0
0	9156	42980.256	0
0	9160	42988.912	0
0	9173	43026.136	0
0	9184	43073.037	0
0	9188	43089.368	0
0	9193	43098.662	0
0	9195	43104.927	0
0	9202	43120.648	0
1	2	0	0
1	5	8.581	0
1	16	126.677	0
1	20	172.602	0
1	27	222.192	0
1	33	251.667	0
1	37	256.707	0
1	40	267.928	0
1	49	332.996	0
1	52	338.99	0
1	54	344.385	0
1	57	349.267	0
1	64	366.026	0
1	69	383.19	0
1	79	417.135	0
1	83	420.027	0
1	93	454.835	0
1	99	480.154	0
1	105	504.897	0
1	109	510.646	0
1	123	549.195	0
1	126	555.182	0
1	129	570.861	0
1	131	574.633	0
1	134	581.283	0
1	136	583.657	0
1	138	583.904	1
1	147	605.867	2
1	149	614.56	1
1	153	619.349	0
1	161	640.732	0
1	178	699.101	0
1	181	703.439	0
1	196	787.672	0
1	205	896.203	0
1	212	954.831	0
1	216	977.724	0
1	218	982.475	0
1	223	999.574	0
1	225	1005.792	0
1	243	1116.087	0
1	246	1129.275	0
1	258	1201.887	0
1	261	1226.312	0
1	265	1232.707	0
1	281	1318.329	0
1	287	1386.295	0
1	290	1392.177	0
1	292	1393.436	0
1	297	1420.497	0
1	299	1421.804	0
1	308	1467.906	0
1	313	1515.532	0
1	315	1515.861	0
1	317	1516.804	1
1	319	1517.318	0
1	324	1536.438	1
1	326	1557.324	0
1	347	1648.328	0
1	352	1699.643	0
1	359	1727.387	0
1	361	1729.59	0
1	377	1830.923	0
1	389	1942.144	0
1	392	1963.995	0
1	400	2034.595	0
1	403	2038.36	0
1	407	2062.499	0
1	413	2074.594	0
1	417	2084.135	0
1	426	2145.31	0
1	434	2164.843	0
1	438	2184.785	0
1	444	2192.186	0
1	449	2213.574	0
1	451	2215.061	0
1	464	2277.274	0