version 2
run General-0-20220119-02:29:58-7720
attr configname General
attr datetime 20220119-02:29:58
attr experiment General
attr inifile omnetpp.ini
attr iterationvars ""
attr iterationvarsf ""
attr measurement ""
attr network PolicyA
attr processid 7720
attr repetition 0
attr replication #0
attr resultdir results
attr runnumber 0
attr seedset 0

vector 0 PolicyA.queue "time spent on the queue" ETV
attr interpolationmode none
vector 1 PolicyA.queue "queue size after modification" ETV
attr interpolationmode none
vector 2 PolicyA.queue "queue size per minute" ETV
attr interpolationmode none
vector 3 PolicyA.queue "client processing order" ETV
attr interpolationmode none
vector 4 PolicyA.queue "processing time with client order" ETV
attr interpolationmode none
vector 5 PolicyA.queue "till processing order" ETV
attr interpolationmode none
vector 6 PolicyA.queue "client total time in the till" ETV
attr interpolationmode none
vector 7 PolicyA.source "number of clients entering the queue per timer interval" ETV
attr interpolationmode none
0	2	0	0
0	5	31.835	0
0	11	67.777	0
0	15	104.706	0
0	19	136.194	0
0	27	220.39	9.037
0	34	252.879	0
0	42	299.637	23.737
0	46	322.745	32.719
0	56	378.967	0
0	61	398.311	0
0	68	424.289	0
0	74	491.177	0
0	83	545.212	20.458
0	86	558.371	13.662
0	95	617.044	0
0	100	646.301	25.611
0	109	662.475	0
0	113	680.845	0
0	122	806.852	0
0	129	888.465	0
0	144	1042.274	0
0	149	1106.484	0
0	152	1131.241	0
0	159	1160.64	0
0	168	1206.078	0
0	172	1246.935	0
0	181	1316.374	63.25
0	186	1367.964	84.007
0	194	1399.734	0
0	197	1404.212	0
0	208	1459.048	29.168
0	211	1466.664	24.493
0	220	1501.701	0
0	224	1511.463	0
0	236	1560.021	42.747
0	243	1582.41	64.377
0	251	1628.714	95.01
0	254	1642.506	70.347
0	258	1667.305	85.088
0	263	1693.513	72.914
0	273	1768.133	54.377
0	275	1770.168	18.432
0	289	1844.79	0
0	291	1847.275	0
0	302	1987.284	0
0	306	2031.708	0
0	312	2044.1	2.944
0	321	2058.892	0
0	324	2064.413	0
0	332	2119.975	0
0	337	2153.752	0
0	342	2157.38	2.061
0	349	2178.412	0
0	364	2356.592	0
0	367	2365.964	0
0	376	2406.285	0
0	382	2448.635	0
0	386	2460.318	0
0	396	2542.36	60.639
0	403	2569.072	62.233
0	411	2581.202	35.288
0	419	2639.509	86.67
0	423	2658.305	88.966
0	426	2670.322	96.305
0	435	2708.341	89.397
0	438	2742.571	63.362
0	448	2798.697	0
0	451	2802.783	0
0	459	2857.938	16.151
0	465	2886.58	0
0	475	3029.524	0
0	486	3103.67	48.853
0	504	3207.979	124.659
0	507	3236.378	150.765
0	512	3265.188	142.436
0	518	3337.191	190.441
0	520	3337.307	189.749
0	526	3355.864	206.707
0	538	3428.596	256.124
0	543	3460.293	274.525
0	547	3472.541	131.11
0	549	3474.097	106.44
0	557	3536.952	164.239
0	560	3544.338	86.656
0	574	3623.214	65.376
0	576	3629.813	38.531
0	580	3637.024	17.292
0	589	3678.012	28.65
0	598	3748.785	0
0	608	3854.755	0
0	611	3870.097	0
0	613	3870.473	0
0	623	3914.507	0
0	630	3964.904	0
0	643	4046.859	68.289
0	652	4066.74	75.869
0	658	4107.446	108.481
0	663	4135.373	116.12
0	670	4152.119	100.674
0	673	4165.854	113.597
0	683	4220.581	161.114
0	685	4222.699	92.602
0	691	4250.906	114.475
0	697	4273.908	92.172
0	701	4301.484	71.088
0	709	4361.402	0
0	716	4397.266	0
0	721	4431.235	0
0	731	4471.981	0
0	739	4594.072	0
0	742	4617.777	0
0	750	4678.922	37.29
0	760	4795.352	0
0	767	4809.473	0
0	775	4867.746	0
0	778	4887.947	0
0	788	4932.958	0
0	792	4967.779	0
0	802	5053.172	0
0	809	5100.347	0
0	813	5152.023	0
0	823	5220.351	40.496
0	828	5225.171	14.841
0	838	5294.022	73.21
0	844	5328.929	66.805
0	846	5329.698	45.518
0	859	5407.839	86.363
0	861	5414.768	67.528
0	878	5508.435	135.79
0	883	5552.555	136.737
0	886	5566.271	136.866
0	897	5590.195	147.086
0	900	5601.093	138.639
0	909	5654.215	169.363
0	916	5660.843	91.693
0	918	5667.825	94.333
0	932	5748.578	160.917
0	936	5763.205	141.788
0	940	5788.517	131.351
0	944	5809.422	150.888
0	956	5859.22	158.326
0	958	5865.931	149.552
0	963	5892.657	166.275
0	980	6015.443	198.316
0	987	6113.21	291.99
0	989	6114.595	270.477
0	998	6145.355	212.24
0	1003	6175.491	218.613
0	1008	6207.095	245.992
0	1014	6244.837	279.539
0	1019	6303.436	237.367
0	1027	6424.555	308.382
0	1030	6441.924	300.412
0	1033	6445.188	33.06
0	1046	6517.377	67.01
0	1049	6537.882	80.213
0	1061	6582.95	119.994
0	1072	6681.659	143.346
0	1074	6685.029	125.516
0	1081	6728.196	162.651
0	1089	6774.222	187.762
0	1095	6789.12	199.793
0	1098	6802.266	50.945
0	1101	6810.304	37.189
0	1108	6844.781	69.589
0	1118	6874.459	18.756
0	1126	6951.719	85.523
0	1128	6956.246	89.579
0	1137	7019.963	95.384
0	1143	7054.438	77.487
0	1157	7093.242	60.839
0	1165	7138.791	76.943
0	1169	7160.832	96.749
0	1182	7222.632	141.99
0	1190	7339.151	249.583
0	1196	7376.005	278.524
0	1199	7379.614	274.632
0	1205	7399.203	231.084
0	1210	7434.999	256.74
0	1220	7488.196	292.991
0	1228	7517.594	207.007
0	1234	7580.925	221.586
0	1237	7595.665	200.007
0	1239	7598.239	141.348
0	1247	7647.145	188.187
0	1257	7750.727	257.332
0	1259	7759.699	255.437
0	1269	7802.728	103.301
0	1275	7851.782	116.7
0	1290	7918.687	128.018
0	1294	7934.398	91.338
0	1298	7957.925	94.55
0	1302	7978.721	105.796
0	1311	8081.134	198.788
0	1313	8082.177	189.767
0	1318	8111.858	209.574
0	1324	8154.879	137.032
0	1336	8174.2	15.774
0	1339	8187.884	25.892
0	1351	8288.305	123.922
0	1353	8289.246	122.54
0	1357	8291.417	101.915
0	1367	8335.165	130.716
0	1373	8352.941	63.345
0	1377	8385.608	77.035
0	1380	8390.979	43.948
0	1390	8441.601	17.436
0	1399	8519.666	49.999
0	1402	8523.293	8.412
0	1411	8591.231	38.988
0	1418	8643.037	0
0	1427	8720.321	67.504
0	1438	8745.796	68.626
0	1445	8781.888	61.202
0	1453	8841.649	108.739
0	1458	8886.434	147.62
0	1467	8977.32	237.671
0	1475	9034.375	284.312
0	1477	9035.327	228.449
0	1488	9074.355	173.563
0	1495	9121.263	184.971
0	1497	9126.439	119.021
0	1501	9158.046	121.293
0	1510	9191.481	154.726
0	1512	9193.241	74.053
0	1521	9259.241	76.064
0	1530	9316.838	88.099
0	1533	9328.316	53.052
0	1543	9408.259	123.286
0	1553	9480.248	133.088
0	1555	9484.128	126.542
0	1562	9547.714	105.218
0	1568	9585.614	128.061
0	1573	9617.856	34.019
0	1579	9633.571	0
0	1584	9648.024	7.778
0	1591	9662.36	0
0	1604	9727.314	46.207
0	1609	9740.913	50.129
0	1613	9773.448	69.655
0	1623	9825.452	86.308
0	1631	9852.502	47.435
0	1646	9966.144	156.076
0	1650	9973.967	134.758
0	1654	9987.115	134.938
0	1661	10034.513	176.67
0	1663	10040.354	174.821
0	1669	10050.586	136.293
0	1671	10050.724	111.55
0	1676	10060.42	87.911
0	1687	10092.355	46.435
0	1691	10095.225	42.094
0	1698	10138.431	58.518
0	1702	10149.8	18.67
0	1713	10202.866	16.497
0	1722	10311.853	115.676
0	1726	10330.506	78.996
0	1735	10363.375	59.24
0	1739	10381.051	41.787
0	1743	10414.334	73.202
0	1753	10471.872	0
0	1756	10476.099	0
0	1765	10509.819	31.115
0	1773	10527.505	48.138
0	1781	10615.141	103.328
0	1783	10615.972	103.788
0	1800	10776.493	219.973
0	1803	10784.597	61.838
0	1805	10785.573	54.796
0	1818	10830.326	96.905
0	1827	10903.756	141.605
0	1831	10924.235	135.492
0	1836	10964.489	141.003
0	1840	10995.772	110.326
0	1847	11028.848	133.545
0	1853	11129.442	103.782
0	1858	11144.948	0
0	1870	11282.824	87.587
0	1876	11321.122	86.066
0	1883	11381.597	97.226
0	1888	11402.261	34.94
0	1897	11441.778	0
0	1904	11480.258	0
0	1906	11480.791	0
0	1918	11627.177	0
0	1921	11633.59	0
0	1930	11701.112	6.879
0	1935	11720.265	0
0	1943	11776.292	0
0	1949	11818.203	1.104
0	1955	11840.304	4.813
0	1961	11861.392	4.762
0	1969	11929.343	66.824
0	1973	11931.584	0
0	1980	11952.093	0
0	1987	11984.63	3.895
0	2002	12138.64	0
0	2007	12217.916	0
0	2022	12362.274	0
0	2028	12491.873	0
0	2033	12586.689	0
0	2043	12646.186	0
0	2047	12662.393	0
0	2051	12682.793	0
0	2059	12697.165	0
0	2065	12756.87	0
0	2069	12762.555	0
0	2075	12778.295	0
0	2078	12780.491	0
0	2092	12902.685	0
0	2099	12961.573	0
0	2101	12967.93	0
0	2116	13053.705	0
0	2118	13057.46	0
0	2125	13102.715	0
0	2128	13113.976	0
0	2133	13136.612	0
0	2148	13254.938	96.5
0	2152	13276.229	47.006
0	2158	13304.168	55.886
0	2167	13337.374	37.154
0	2170	13342.905	30.079
0	2172	13346.713	22.051
0	2179	13360.515	0
0	2191	13426.309	39.907
0	2194	13431.218	20.278
0	2201	13464.121	23.438
0	2207	13486.673	0
0	2220	13563.267	0
0	2223	13582.384	0
0	2235	13652.533	0
0	2242	13714.683	0
0	2245	13717.024	0
0	2253	13760.181	0
0	2261	13820.51	0
0	2266	13880.607	0
0	2269	13892.62	0
0	2278	13925.785	25.307
0	2281	13929.47	10.268
0	2287	13954.632	0
0	2297	13988.958	21.583
0	2306	14028.064	42.153
0	2308	14033.804	39.114
0	2315	14076.049	56.722
0	2329	14211.292	88.267
0	2333	14221.201	94.973
0	2337	14252.448	100.863
0	2345	14291.698	110.851
0	2348	14300.26	33.689
0	2353	14313.067	12.029
0	2368	14429.23	0
0	2370	14430.67	0
0	2381	14491.904	0
0	2385	14520.439	0
0	2388	14527.407	0
0	2394	14545.654	12.036
0	2405	14588.605	9.235
0	2410	14616.183	31.295
0	2421	14641.142	40.492
0	2430	14693.88	73.282
0	2434	14715.682	88.724
0	2438	14740.4	106.474
0	2448	14785.393	143.18
0	2450	14785.924	138.168
0	2453	14792.868	51.382
0	2464	14909.434	143.529
0	2473	14956.152	104.75
0	2479	15020.062	84.795
0	2486	15067.624	111.989
0	2488	15071.501	22.111
0	2494	15096.241	0
0	2503	15144.35	0
0	2514	15200.901	0
0	2521	15241.332	0
0	2524	15252.311	0
0	2534	15310.573	0
0	2541	15374.235	0
0	2553	15502.165	0
0	2556	15526.675	0
0	2561	15554.676	0
0	2571	15677.599	0
0	2574	15702.041	0
0	2576	15706.143	0
0	2587	15827.501	0
0	2600	15896.264	0
0	2606	15992.071	0
0	2615	16059.68	0
0	2618	16066.626	0
0	2620	16070.595	0
0	2628	16110.246	0
0	2635	16178.859	66.022
0	2643	16233.002	9.741
0	2648	16244.288	9.054
0	2660	16303.821	16.554
0	2665	16358.957	70.335
0	2675	16460.819	157.529
0	2680	16481.646	50.606
0	2692	16527.547	73.036
0	2697	16555.862	83.705
0	2699	16556.611	64.566
0	2709	16609.602	116.898
0	2716	16660.789	137.726
0	2719	16663.153	119.573
0	2725	16715.634	141.315
0	2730	16737.536	117.606
0	2737	16762.273	26.106
0	2747	16795.642	35.258
0	2753	16817.276	41.069
0	2774	16940.48	160.653
0	2776	16941.277	150.621
0	2786	16960.925	132.144
0	2795	16998.233	168.107
0	2802	17018.272	187.517
0	2812	17067.72	208.179
0	2817	17074.704	173.189
0	2820	17094.358	190.023
0	2827	17135.368	199.571
0	2832	17174.058	226.65
0	2835	17202.44	253.712
0	2845	17248.273	289.547
0	2848	17265.732	272.292
0	2859	17395.173	396.114
0	2865	17454.99	455.447
0	2870	17501.12	474.563
0	2874	17504.027	472.561
0	2881	17529.051	459.041
0	2887	17574.009	357.617
0	2895	17595.063	371.556
0	2899	17629.868	335.124
0	2912	17706.945	385.243
0	2917	17770.939	267.324
0	2920	17779.919	261.302
0	2926	17808.746	228.971
0	2931	17826.297	235.47
0	2935	17856.202	219.348
0	2944	17887.709	239.557
0	2948	17919.196	230.847
0	2953	17942.046	149.071
0	2959	17968.093	98.168
0	2968	18041.117	157.658
0	2971	18044.095	91.471
0	2977	18080.122	106.062
0	2984	18122.75	9.864
0	2989	18133.155	0
0	2997	18186.836	0
0	3002	18203.976	0
0	3015	18314.742	0
0	3028	18484.063	0
0	3035	18622.977	0
0	3042	18717.11	0
0	3046	18731.181	0
0	3048	18736.343	0
0	3064	18929.532	0
0	3067	18934.01	0
0	3071	18960.905	0
0	3085	19081.504	0
0	3089	19128.321	0
0	3091	19130.726	0
0	3104	19230.151	0
0	3111	19315.539	0
0	3115	19328.261	0
0	3117	19333.961	0
0	3124	19361.115	8.093
0	3133	19413.746	41.969
0	3140	19427.035	0
0	3150	19490.529	0
0	3154	19514.391	0
0	3158	19528.444	0
0	3170	19615.293	0
0	3174	19626.152	0
0	3181	19679.788	0
0	3193	19794.085	0
0	3201	19834.29	0
0	3206	19915.073	0
0	3218	20027.749	0
0	3225	20083.323	0
0	3230	20131.425	0
0	3240	20269.063	0
0	3249	20476.468	0
0	3254	20500.514	0
0	3262	20549.901	0
0	3265	20563.758	0
0	3271	20608.336	0
0	3276	20629.952	0
0	3286	20677.591	0
0	3293	20714.657	0
0	3298	20733.96	0
0	3309	20862.973	0
0	3319	21000.398	0
0	3322	21032.062	0
0	3336	21187.698	0
0	3340	21223.58	0
0	3350	21314.408	0
0	3353	21335.292	0
0	3359	21369.984	0
0	3362	21382.663	0
0	3365	21395.417	0
0	3373	21424.537	4.809
0	3380	21466.879	26.604
0	3387	21527.861	0
0	3396	21568.279	25.553
0	3413	21683.842	128.099
0	3420	21753.658	179.24
0	3435	21905.735	301.542
0	3442	21927.203	321.935
0	3445	21932.344	271.529
0	3459	22025.469	348.425
0	3467	22075.539	382.503
0	3471	22089.08	292.879
0	3481	22172.751	369.165
0	3487	22228.081	422.498
0	3492	22241.149	342.865
0	3500	22275.784	365.798
0	3503	22313.035	387.034
0	3510	22322.795	373.161
0	3516	22398.794	444.739
0	3525	22427.992	445.202
0	3528	22435.015	398.327
0	3532	22441.399	385.147
0	3537	22472.479	370.585
0	3552	22532.824	391.975
0	3555	22545.807	315.612
0	3562	22574.424	299.011
0	3571	22613.194	292.671
0	3582	22649.02	243.941
0	3587	22660.87	249.372
0	3591	22684.541	259.753
0	3596	22702.152	199.762
0	3598	22710.116	207.409
0	3608	22765.623	238.252
0	3611	22779.427	251.063
0	3621	22813.33	254.719
0	3625	22831.041	239.766
0	3632	22864.753	269.728
0	3646	22953.695	330.727
0	3648	22961.508	331.868
0	3659	23034.233	403.608
0	3664	23082.702	429.906
0	3669	23131.099	383.651
0	3676	23203.512	409.101
0	3681	23242.064	442.734
0	3684	23262.561	428.802
0	3695	23344.734	463.442
0	3699	23389.712	456.904
0	3701	23389.903	437.397
0	3713	23434.142	481.528
0	3715	23443.134	480.217
0	3724	23488.865	484.274
0	3726	23494.479	346.748
0	3735	23532.496	253.139
0	3740	23552.055	225.005
0	3752	23636.954	242.693
0	3756	23644.148	221.369
0	3768	23748.176	283.564
0	3775	23798.34	271.142
0	3779	23832.558	282.022
0	3783	23852.125	272.234
0	3793	23913.612	286.36
0	3798	23926.25	295.187
0	3807	24071.614	415.829
0	3812	24107.179	441.056
0	3822	24154.513	418.252
0	3827	24216.405	441.092
0	3830	24239.438	376.816
0	3838	24256.354	355.152
0	3842	24268.358	346.427
0	3849	24309.443	229.854
0	3852	24339.12	220.649
0	3858	24354.032	216.481
0	3863	24389.631	149.859
0	3867	24397.537	152.61
0	3872	24427.647	80.003
0	3878	24448.565	0
0	3883	24464.351	0.566
0	3892	24510.108	26.608
0	3898	24541.141	24.548
0	3909	24611.322	0
0	3914	24698.291	0
0	3920	24721.943	0
0	3928	24784.137	51.319
0	3936	24828.203	0
0	3945	24871.487	0
0	3948	24894.699	0
0	3958	24933.989	0
0	3965	24981.679	0
0	3968	24993.048	0
0	3978	25077.359	0
0	3981	25079.832	0
0	3985	25108.992	0
0	3990	25114.463	2.95
0	4004	25206.836	0
0	4013	25298.172	0
0	4020	25342.833	0
0	4025	25372.944	0
0	4030	25402.554	0
0	4034	25418.014	0
0	4039	25431.29	13.152
0	4053	25518.571	82.444
0	4056	25535.97	63.46
0	4058	25536.571	63.853
0	4071	25628.264	0
0	4074	25644.163	0
0	4082	25693.957	35.917
0	4086	25703.661	0
0	4099	25807.648	0
0	4102	25833.624	0
0	4110	25874.144	19.872
0	4115	25894.374	0
0	4124	25982.903	0
0	4129	26013.379	12.126
0	4140	26106.618	0
0	4145	26123.086	0
0	4149	26145.696	0
0	4156	26181.882	0.25
0	4162	26199.142	0
0	4170	26241.945	0
0	4175	26278.982	1.273
0	4184	26346.685	0
0	4192	26390.299	23.363
0	4195	26395.608	27.14
0	4212	26657.807	0
0	4219	26708.927	0
0	4223	26749.525	0
0	4228	26816.602	0
0	4239	26966.168	0
0	4249	27054.384	0
0	4258	27112.236	0
0	4263	27160.162	0
0	4266	27176.511	0
0	4268	27179.936	0
0	4275	27193.901	7.573
0	4287	27244.301	0
0	4294	27266.946	0
0	4297	27279.024	0
0	4303	27308.549	0
0	4311	27367.268	50.81
0	4318	27443.973	0
0	4323	27466.251	17.751
0	4330	27483.526	0
0	4340	27593.775	0
0	4351	27669.17	0
0	4358	27779.02	0
0	4369	27943.017	0
0	4373	27963.437	0
0	4379	28024.172	0
0	4381	28030.57	0
0	4392	28088.496	0
0	4398	28131.269	0
0	4409	28210.507	0
0	4412	28214.6	0
0	4414	28218.383	0
0	4421	28245.931	0
0	4432	28299.856	19.122
0	4435	28311.704	26.908
0	4447	28452.607	0
0	4449	28455.02	0
0	4455	28467.669	0
0	4464	28509.487	16.376
0	4473	28582.744	63.495
0	4476	28591.282	43.63
0	4487	28684.417	0
0	4498	28762.248	0
0	4501	28767.24	0
0	4504	28793.683	0
0	4511	28806.34	0
0	4519	28840.784	23.715
0	4524	28866.172	28.682
0	4530	28882.005	0
0	4540	28959.733	0
0	4547	29000.509	0
0	4550	29020.886	0
0	4560	29063.777	42.002
0	4567	29093.814	49.431
0	4572	29104.95	22.436
0	4577	29132.008	46.589
0	4585	29221.418	96.728
0	4598	29292.761	69.939
0	4601	29306.067	67.578
0	4604	29316.436	47.153
0	4613	29355.016	81.05
0	4616	29362.39	16.758
0	4624	29391.577	25.152
0	4630	29403.952	22.039
0	4636	29431.973	0
0	4642	29459.396	7.013
0	4653	29522.076	39.419
0	4659	29562.588	76.368
0	4661	29564.352	29.542
0	4670	29611.801	36.7
0	4682	29703.007	0
0	4687	29783.754	0
0	4689	29784.939	0
0	4700	29823.713	38.726
0	4705	29897.443	81.834
0	4710	29928.475	2.142
0	4718	29989.981	0
0	4725	30001.586	3.148
0	4735	30067.901	51.909
0	4742	30139.499	122.735
0	4762	30258.478	166.269
0	4777	30291.129	124.916
0	4785	30299.554	114.655
0	4794	30330.028	135.043
0	4799	30364.086	154.41
0	4803	30378.531	165.497
0	4808	30392.313	148.454
0	4812	30402.636	155.21
0	4826	30515.747	255.481
0	4841	30632.852	362.576
0	4846	30641.253	370.628
0	4855	30675.804	400.964
0	4859	30688.113	412.263
0	4867	30763.44	475.272
0	4869	30765.286	470.885
0	4873	30779.994	482.855
0	4877	30795.845	495.992
0	4882	30807.847	497.919
0	4886	30829.509	441.987
0	4899	30880.659	460.327
0	4903	30916.362	409.534
0	4914	31032.718	519.23
0	4921	31092.717	563.079
0	4930	31155.158	616.614
0	4935	31168.905	580.44
0	4943	31200.729	589.993
0	4949	31220.01	579.223
0	4959	31265.992	610.841
0	4961	31271.004	598.656
0	4967	31284.078	550.895
0	4969	31289.578	451.587
0	4986	31354.715	512.704
0	4999	31413.253	551.301
0	5002	31433.548	487.324
0	5007	31447.833	493.046
0	5017	31501.056	446.183
0	5025	31551.787	439.949
0	5032	31603.862	473.887
0	5035	31611.605	453.819
0	5037	31612.011	413.097
0	5053	31786.306	575.669
0	5059	31826.604	583.931
0	5066	31873.894	625.563
0	5070	31910.216	634.48
0	5076	31924.401	602.87
0	5081	31978.214	652.58
0	5085	31988.387	657.759
0	5092	32028.794	678.029
0	5097	32069.021	711.289
0	5100	32074.735	706.388
0	5111	32103.229	732.965
0	5117	32129.525	724.04
0	5123	32156.951	696.517
0	5129	32194.689	696.694
0	5137	32297.95	761.996
0	5150	32381.617	838.205
0	5152	32383.477	793.684
0	5162	32423.998	683.658
0	5167	32486.564	730.302
0	5172	32503.214	718.611
0	5179	32600.268	750.745
0	5182	32614.133	692.206
0	5187	32641.014	612.246
0	5194	32685.109	605.109
0	5206	32801.539	720.201
0	5215	32854.753	754.812
0	5218	32870.128	747.986
0	5222	32892.614	759.088
0	5229	32919.99	632.787
0	5239	32974.831	663.091
0	5251	33045.35	715.479
0	5254	33056.915	703.522
0	5262	33118.327	748.549
0	5267	33161.994	758.285
0	5272	33174.789	686.043
0	5276	33181.303	499.969
0	5279	33196.359	452.239
0	5287	33244.698	455.536
0	5290	33262.467	462.795
0	5294	33285.499	474.591
0	5296	33286.247	444.376
0	5308	33343.756	442.567
0	5314	33430.16	474.062
0	5325	33491.142	521.114
0	5330	33496.891	502.724
0	5332	33504.723	501.928
0	5342	33536.288	506.248
0	5347	33554.05	463.776
0	5351	33579.188	414.538
0	5360	33619.734	307.545
0	5362	33622.417	305.906
0	5366	33629.942	165.191
0	5369	33651.117	183.232
0	5382	33730.162	260.787
0	5389	33803.563	312.076
0	5392	33811.758	299.374
0	5410	33879.67	362.732
0	5417	33950.829	349.823
0	5422	33996.384	285.857
0	5424	34003.617	292.983
0	5438	34089.597	359.073
0	5445	34168.04	330.276
0	5447	34171.592	322.299
0	5455	34217.148	357.687
0	5458	34239.178	378.714
0	5465	34273.105	411.008
0	5468	34282.993	420.596
0	5474	34294.797	391.567
0	5486	34383.136	374.993
0	5488	34387.334	360.237
0	5500	34432.411	356.463
0	5508	34443.224	317.894
0	5519	34492.296	243.51
0	5528	34549.965	264.508
0	5535	34594.894	250.656
0	5538	34608.164	225.047
0	5560	34677.191	269.657
0	5564	34688.285	267.132
0	5568	34714.007	289.298
0	5570	34718.614	283.285
0	5574	34725.049	286.325
0	5578	34734.334	286.058
0	5585	34762.672	298.851
0	5605	34888.289	416.382
0	5612	34940.273	447.731
0	5614	34947.011	399.773
0	5627	35017.936	440.759
0	5635	35043.76	421.247
0	5639	35070.453	441.688
0	5643	35083.351	454.564
0	5646	35099.592	463.446
0	5656	35167.336	528.526
0	5666	35213.385	571.948
0	5671	35219.656	565.94
0	5675	35231.659	560.813
0	5681	35266.396	487.788
0	5687	35290.847	505.397
0	5694	35325.91	533.526
0	5701	35398.52	589.386
0	5706	35425.323	564.221
0	5719	35520.678	654.659
0	5724	35547.503	637.939
0	5730	35562.149	600.523
0	5732	35562.897	560.686
0	5740	35620.968	617.713
0	5744	35643.769	614.404
0	5763	35799.396	767.67
0	5767	35832.671	702.405
0	5773	35864.617	678.074
0	5779	35908.863	721.008
0	5792	35965.778	756.264
0	5802	36007.659	790.549
0	5806	36053.708	766.925
0	5811	36093.527	775.165
0	5821	36128.801	774.891
0	5825	36149.269	704.639
0	5833	36207.259	741.542
0	5836	36226.738	742.316
0	5842	36263.209	730.233
0	5845	36285.138	723.165
0	5854	36300.937	651.013
0	5856	36307.28	657.149
0	5866	36361.835	704.889
0	5874	36410.015	706.973
0	5878	36420.697	716.268
0	5892	36505.254	751.247
0	5901	36584.947	744.355
0	5908	36605.403	690.276
0	5916	36626.384	705.209
0	5922	36669.45	742.811
0	5925	36684.774	740.346
0	5928	36703.486	720.199
0	5935	36756.337	762.107
0	5941	36788.841	691.894
0	5950	36834.775	721.23
0	5960	36900.493	782.455
0	5965	36925.646	770.935
0	5973	36992.661	705.863
0	5978	37039.84	744.066
0	5981	37049.402	712.999
0	5989	37094.726	701.114
0	5994	37157.515	755.695
0	5997	37165.357	733.108
0	6003	37194.347	726.689
0	6010	37200.458	717.576
0	6023	37264.379	772.367
0	6034	37329.396	813.697
0	6037	37346.961	767.599
0	6041	37362.304	770.55
0	6046	37394.801	785.361
0	6059	37515.657	892.049
0	6064	37533.183	756.592
0	6072	37614.363	808.34
0	6080	37635.384	810.497
0	6092	37705.903	869.928
0	6095	37734.896	835.416
0	6100	37766.108	849.732
0	6106	37794.091	833.461
0	6113	37859.185	765.872
0	6127	37946.676	772.983
0	6130	37963.517	766.537
0	6133	37978.337	754.704
0	6138	37995.59	748.162
0	6144	38008.301	753.314
0	6157	38084.829	791.015
0	6161	38108.863	811.492
0	6175	38191.558	866.606
0	6178	38217.673	812.088
0	6183	38240.395	814.282
0	6185	38246.316	805.274
0	6193	38333.052	804.219
0	6200	38385.682	790.243
0	6210	38441.987	821.652
0	6219	38492.122	862.284
0	6221	38496.472	854.339
0	6228	38550.428	905.846
0	6235	38602.828	923.969
0	6242	38649.455	870.287
0	6249	38677.43	787.723
0	6251	38678.792	781.372
0	6258	38713.241	810.894
0	6263	38752.099	842.564
0	6267	38786.015	784.43
0	6269	38787.738	758.638
0	6278	38824.596	791.838
0	6290	38890.01	853.195
0	6295	38907.949	791.485
0	6298	38915.569	765.67
0	6307	38987.394	822.862
0	6314	39002.682	821.387
0	6319	39047.937	687.15
0	6321	39051.603	647.978
0	6330	39110.902	678.14
0	6334	39140.287	680.984
0	6336	39142	680.596
0	6338	39143.734	589.759
0	6350	39198.424	574.302
0	6353	39216.979	541.134
0	6358	39241.125	563.707
0	6361	39246.087	435.727
0	6363	39254.797	403.077
0	6373	39296.666	428.743
0	6385	39361.524	489.398
0	6398	39470.118	562.852
0	6403	39524.877	591.792
0	6414	39596.691	595.009
0	6421	39663.266	553.88
0	6424	39685.775	509.134
0	6443	39780.987	524.696
0	6452	39860.052	554.833
0	6456	39898.836	578.726
0	6462	39925.764	577.627
0	6474	39997.053	628.984
0	6481	40036.528	652.081
0	6484	40048.785	644.439
0	6494	40113.761	646.121
0	6505	40168.67	633.491
0	6508	40184.27	639.272
0	6515	40250.597	690.236
0	6519	40261.176	555.107
0	6532	40310.025	590.209
0	6537	40371.525	643.781
0	6546	40410.999	660.007
0	6548	40416.574	648.626
0	6555	40492.274	715.034
0	6562	40539.08	735.678
0	6565	40558.452	711.309
0	6570	40592.878	689.656
0	6574	40605.607	665.324
0	6579	40627.411	659.751
0	6584	40675.197	702.513
0	6589	40719.297	707.604
0	6594	40758.435	685.307
0	6596	40762.623	662.436
0	6604	40813.013	697.262
0	6607	40825.453	703.909
0	6610	40850.833	714.068
0	6619	40890.293	619.329
0	6624	40967.992	694.024
0	6632	40987.143	710.307
0	6636	41016.071	726.089
0	6642	41033.051	649.92
0	6655	41150.009	759.11
0	6659	41170.749	639.483
0	6661	41173.709	300.002
0	6665	41188.706	213.101
0	6680	41297.302	315.833
0	6682	41302.82	269.865
0	6700	41338.894	270.191
0	6715	41431.303	314.435
0	6722	41442.865	308.087
0	6727	41476.098	258.514
0	6732	41515.806	288.598
0	6739	41561.308	275.099
0	6742	41579.15	271.493
0	6750	41619.191	311.044
0	6752	41620.667	311.217
0	6759	41645.096	320.053
0	6769	41687.842	360.282
0	6794	41845.713	507.721
0	6799	41892.159	506.6
0	6802	41923.617	527.582
0	6814	41972.678	572.532
0	6822	42041.285	636.111
0	6831	42057.115	623.003
0	6833	42057.89	622.116
0	6843	42096.193	548.927
0	6846	42098.303	505.815
0	6856	42156.841	528.407
0	6861	42171.777	525.099
0	6870	42246.123	573.608
0	6873	42267.65	563.568
0	6879	42293.875	555.652
0	6889	42351.447	605.352
0	6892	42358.144	582.683
0	6901	42460.74	680.353
0	6911	42554.829	773.196
0	6917	42613.395	820.554
0	6920	42619.578	816.572
0	6930	42667.386	859.071
0	6932	42670.06	738.861
0	6934	42674.356	712.112
0	6943	42752.049	785.257
0	6946	42770.752	790.398
0	6951	42791.358	747.617
0	6954	42796.627	751.57
0	6957	42803.031	757.127
0	6961	42818.082	724.211
0	6971	42897.477	776.715
0	6985	42985.753	853.819
0	6988	42998.093	830.628
0	6993	43030.005	806.566
0	6999	43065.998	788.04
0	7011	43122.939	806.225
0	7013	43123.826	796.717
0	7028	43219.031	773.244
0	7040	43255.32	734.087
0	7047	43288.414	740.214
0	7050	43304.748	672.957
0	7058	43345.571	703.201
0	7063	43385.865	524.442
0	7065	43387.914	475.66
0	7067	43389.098	452.914
0	7077	43426.008	476.22
0	7079	43431.373	469.843
0	7083	43435.494	372.334
0	7087	43445.777	377.171
0	7092	43464.048	365.596
0	7096	43470.177	369.924
0	7105	43544.428	413.477
0	7109	43565.881	419.695
0	7111	43568.669	398.37
0	7123	43636.26	413.95
0	7126	43661.677	425.089
0	7129	43670.759	433.188
0	7133	43677.713	427.729
0	7142	43721.306	448.829
0	7153	43800.37	485.657
0	7158	43814.199	422.726
0	7163	43827.352	296.662
0	7167	43841.169	241.052
0	7173	43861.065	250.349
0	7180	43895.124	178.336
0	7185	43905.236	155.786
0	7197	43964.312	211.014
0	7201	43988.546	186.424
0	7215	44053.282	229.465
0	7219	44097.236	227.159
0	7224	44135.493	233.471
0	7232	44160.847	255.346
0	7241	44213.173	305.164
0	7255	44296.164	386.058
0	7264	44436.216	432.028
0	7269	44458.319	413.164
0	7271	44459.271	412.889
0	7281	44508.87	462.461
0	7286	44519.522	376.763
0	7289	44523.407	367.601
0	7296	44572.423	408.412
0	7298	44578.198	405.96
0	7305	44582.523	363.243
0	7308	44601.404	377.512
0	7316	44646.359	402.168
0	7330	44785.33	528.843
0	7332	44785.62	381.426
0	7339	44869.098	424.098
0	7345	44906.548	409.104
0	7351	44934.874	416.185
0	7358	44963.77	385.503
0	7367	45003.199	288.071
0	7370	45011.377	294.495
0	7380	45065.182	328.333
0	7394	45188.098	402.976
0	7397	45215.149	326.502
0	7411	45361.651	443.262
0	7419	45396.348	460.467
0	7431	45480.716	483.003
0	7434	45516.754	462.797
0	7438	45536.328	478.145
0	7449	45691.108	617.622
0	7456	45779.645	649.243
0	7460	45793.03	661.94
0	7465	45797.781	617.958
0	7471	45829.899	513.559
0	7473	45832.856	511.502
0	7475	45836.888	483.376
0	7485	45925.697	554.563
0	7492	45954.832	569.662
0	7494	45957.362	559.807
0	7499	45961.887	498.443
0	7503	45972.435	501.847
0	7511	46023.941	482.908
0	7516	46035.247	325.935
0	7518	46040.337	244.921
0	7523	46061.78	127.196
0	7528	46072.472	128.822
0	7542	46118.071	84.073
0	7550	46145.282	70.292
0	7559	46205.117	127.806
0	7564	46260.081	153.239
0	7568	46299.921	191.647
0	7587	46461.735	337.355
0	7589	46467.511	333.901
0	7596	46523.505	322.103
0	7601	46565.433	196.645
0	7606	46673.339	293.295
0	7620	46740.128	355.399
0	7624	46776.438	382.728
0	7632	46815.885	382.315
0	7635	46826.014	389.33
0	7640	46842.609	157.46
0	7642	46845.706	147.67
0	7662	46931.161	227.645
0	7667	47007.694	285.792
0	7669	47008.981	229.754
0	7681	47106.975	280.126
0	7686	47132.93	284.81
0	7690	47155.68	300.38
0	7695	47169.559	298.214
0	7700	47186.101	274.068
0	7704	47196.34	272.437
0	7711	47259.605	217.578
0	7714	47268.396	174.209
0	7722	47316.84	202.01
0	7725	47322.608	145.015
0	7728	47333.28	40.999
0	7737	47354.985	16.658
0	7744	47376.12	29.783
0	7757	47409.187	42.615
0	7760	47441.496	63.921
0	7763	47450.92	63.379
0	7772	47473.167	68.401
0	7778	47507.541	53.752
0	7786	47528.236	56.377
0	7793	47576.511	64.449
0	7800	47628.333	103.753
0	7805	47662.4	121.632
0	7810	47669.601	64.404
0	7816	47722.072	54.703
0	7825	47767.407	29.904
0	7844	47951.329	213.613
0	7860	48023.938	246.019
0	7863	48033.307	199.771
0	7868	48057.063	216.744
0	7878	48143.719	298.335
0	7880	48146.107	278.518
0	7886	48164.764	260.963
0	7893	48220.227	227.138
0	7896	48235.427	237.964
0	7909	48306.825	307.988
0	7912	48320.77	321.203
0	7915	48327.98	324.952
0	7921	48348.463	309.714
0	7930	48415.362	318.544
0	7935	48460.496	299.562
0	7944	48535.362	271.633
0	7948	48541.247	270.91
0	7953	48589.45	292.471
0	7956	48597.096	264.633
0	7965	48634.149	247.879
0	7972	48680.199	186.352
0	7979	48767.694	261.599
0	7984	48816.537	194.696
0	7991	48878.093	204.498
0	7994	48882.195	144.768
0	7997	48885.819	54.472
0	8007	48965.736	73.931
0	8014	48980.798	13.272
0	8022	49061.481	82.575
0	8029	49105.891	85.045
0	8036	49158.075	86.456
0	8042	49197.49	45.217
0	8051	49268.95	71.759
0	8053	49278.004	36.078
0	8060	49308.959	2.182
0	8071	49381.684	56.456
0	8074	49395.937	29.034
0	8079	49411.601	0
0	8092	49472.26	16.528
0	8095	49482.618	26.1
0	8107	49542.888	80.173
0	8110	49559.705	76.609
0	8117	49581.611	84.173
0	8125	49670.943	158.748
0	8134	49713.706	145.109
0	8141	49763.299	107.037
0	8143	49768.248	69.649
0	8153	49817.821	105.034
0	8162	49892.955	155.453