version 2
run General-0-20220624-05:26:05-2804
attr configname General
attr datetime 20220624-05:26:05
attr experiment General
attr inifile omnetpp.ini
attr iterationvars $0=789
attr iterationvarsf 789-
attr measurement $0=789
attr network PolicyB
attr processid 2804
attr repetition 0
attr replication #0
attr resultdir results
attr runnumber 0
attr seedset 789

vector 0 PolicyB.queue3 "time spent on the queue" ETV
attr interpolationmode none
vector 1 PolicyB.queue3 "queue size after modification" ETV
attr interpolationmode none
vector 2 PolicyB.queue2 "time spent on the queue" ETV
attr interpolationmode none
vector 3 PolicyB.queue2 "queue size after modification" ETV
attr interpolationmode none
vector 4 PolicyB.queue5 "time spent on the queue" ETV
attr interpolationmode none
vector 5 PolicyB.queue5 "queue size after modification" ETV
attr interpolationmode none
vector 6 PolicyB.queue6 "time spent on the queue" ETV
attr interpolationmode none
vector 7 PolicyB.queue6 "queue size after modification" ETV
attr interpolationmode none
vector 8 PolicyB.queue1 "time spent on the queue" ETV
attr interpolationmode none
vector 9 PolicyB.queue1 "queue size after modification" ETV
attr interpolationmode none
vector 10 PolicyB.queue6 "processing time with client order" ETV
attr interpolationmode none
vector 11 PolicyB.queue3 "processing time with client order" ETV
attr interpolationmode none
vector 12 PolicyB.queue9 "time spent on the queue" ETV
attr interpolationmode none
vector 13 PolicyB.queue9 "queue size after modification" ETV
attr interpolationmode none
vector 14 PolicyB.queue0 "time spent on the queue" ETV
attr interpolationmode none
vector 15 PolicyB.queue0 "queue size after modification" ETV
attr interpolationmode none
vector 16 PolicyB.queue4 "time spent on the queue" ETV
attr interpolationmode none
vector 17 PolicyB.queue4 "queue size after modification" ETV
attr interpolationmode none
vector 18 PolicyB.queue2 "processing time with client order" ETV
attr interpolationmode none
vector 19 PolicyB.queue8 "time spent on the queue" ETV
attr interpolationmode none
vector 20 PolicyB.queue8 "queue size after modification" ETV
attr interpolationmode none
vector 21 PolicyB.queue7 "time spent on the queue" ETV
attr interpolationmode none
vector 22 PolicyB.queue7 "queue size after modification" ETV
attr interpolationmode none
vector 23 PolicyB.queue9 "processing time with client order" ETV
attr interpolationmode none
vector 24 PolicyB.queue4 "processing time with client order" ETV
attr interpolationmode none
vector 25 PolicyB.queue0 "processing time with client order" ETV
attr interpolationmode none
vector 26 PolicyB.queue8 "processing time with client order" ETV
attr interpolationmode none
vector 27 PolicyB.queue5 "processing time with client order" ETV
attr interpolationmode none
vector 28 PolicyB.queue7 "processing time with client order" ETV
attr interpolationmode none
vector 29 PolicyB.queue1 "processing time with client order" ETV
attr interpolationmode none
0	2	0	0
0	31	232.44	0
0	136	502.654	0
0	246	898.906	0
0	391	1398.87	0
0	427	1521.685	59.78
0	522	1811.285	0
0	639	2137.048	56.561
0	890	3148.514	0
0	992	3546.372	33.785
0	1014	3633.865	0
0	1098	3959.551	0
0	1126	4019.846	28.324
0	1284	4565.143	0
0	1323	4730.127	0
0	1531	5332.679	244.195
0	1639	5685.589	275.08
0	1708	6016.992	0
0	1792	6424.201	0
0	1899	6834.163	0
0	2015	7233.811	0
0	2078	7402.395	0
0	2103	7464.136	0
0	2285	8118.424	0
0	2502	9008.304	0
0	2678	9793.228	0
0	2792	10169.558	0
0	2830	10289.871	0
0	2924	10485.904	0
0	2977	10678.234	0
0	3079	11124.823	0
0	3089	11188.907	0
0	3194	11568.691	0
0	3297	12081.393	0
0	3396	12597.586	0
0	3491	12999.279	0
0	3563	13208.062	0
0	3640	13384.154	127.395
0	3679	13494.207	0
0	3849	14154.678	0
0	3945	14526.066	0
0	4027	14726.495	184.837
0	4065	14789.182	0
0	4116	14964.975	0
0	4231	15346.369	0
0	4315	15717.105	0
0	4375	15937.576	0
0	4397	16020.287	0
0	4514	16499.125	465.509
0	4558	16681.973	0
0	4723	17226.554	13.344
0	4766	17311.8	0
0	4971	17978.45	225.17
0	5287	19070.251	926.159
0	5416	19651.665	0
0	5468	19757.378	0
0	5614	20523.478	0
0	5856	21302.526	429.736
0	5981	21760.559	0
0	6075	22203.393	296.324
0	6257	22756.808	0
0	6307	23027.969	0
0	6374	23251.054	0
0	6577	23803.918	430.304
0	6775	24624.164	430.261
0	6794	24719.822	0
0	6925	25067.316	0
0	6976	25158.887	71.49
0	7114	25559.583	0
0	7166	25709.9	0
0	7365	26202.319	173.872
0	7572	26867.247	0
0	7610	26951.366	0
0	7739	27411.907	0
0	7822	27765.203	0
0	7908	28087.194	0
0	7954	28262.532	0
0	8296	29278.129	840.476
0	8407	29576.949	0
0	8443	29788.244	0
0	8594	30234.226	0
0	8733	30722.375	0
0	8854	31290.045	0
0	8890	31377.359	0
0	8946	31624.1	0
0	8989	31801.226	0
0	9024	31902.814	0
0	9068	32099.597	0
0	9199	32631.814	0
0	9365	33292.355	0
0	9456	33551.203	0
0	9607	33951.999	0
0	9636	34020.102	0
0	9691	34187.622	0
0	9768	34561.153	0
0	9831	34804.965	0
0	9948	35327.367	0
0	10136	36192.516	0
0	10309	36725.139	321.552
0	10400	36924.687	153.568
0	10451	37084.727	0
0	10538	37365.947	158.812
0	10584	37485.606	45.046
0	10627	37554.332	0
0	10703	37797.726	0
0	10877	38530.333	0
0	10919	38730.195	0
0	10941	38880.025	0
0	10980	39103.344	0
0	11075	39401.245	215.13
0	11133	39568.045	0
0	11251	39818.686	0
0	11294	39958.472	40.564
0	11356	40162.712	0
0	11503	40724.232	546.665
0	11550	40874.719	0
0	11573	40965.379	0
0	11732	41671.395	0
0	11827	41952.705	0
0	11879	42236.973	0
0	11919	42379.521	0
0	12043	42964.647	0
1	2	0	0
1	31	232.44	0
1	136	502.654	0
1	246	898.906	0
1	391	1398.87	0
1	416	1461.905	1
1	427	1521.685	0
1	522	1811.285	0
1	618	2080.487	1
1	639	2137.048	0
1	890	3148.514	0
1	978	3512.587	1
1	992	3546.372	0
1	1014	3633.865	0
1	1098	3959.551	0
1	1113	3991.522	1
1	1126	4019.846	0
1	1284	4565.143	0
1	1323	4730.127	0
1	1442	5088.484	1
1	1531	5332.679	0
1	1571	5410.509	1
1	1639	5685.589	0
1	1708	6016.992	0
1	1792	6424.201	0
1	1899	6834.163	0
1	2015	7233.811	0
1	2078	7402.395	0
1	2103	7464.136	0
1	2285	8118.424	0
1	2502	9008.304	0
1	2678	9793.228	0
1	2792	10169.558	0
1	2830	10289.871	0
1	2924	10485.904	0
1	2977	10678.234	0
1	3079	11124.823	0
1	3089	11188.907	0
1	3194	11568.691	0
1	3297	12081.393	0
1	3396	12597.586	0
1	3491	12999.279	0
1	3563	13208.062	0
1	3586	13256.759	1
1	3640	13384.154	0
1	3679	13494.207	0
1	3849	14154.678	0
1	3945	14526.066	0
1	3954	14541.658	1
1	4027	14726.495	0
1	4065	14789.182	0
1	4116	14964.975	0
1	4231	15346.369	0
1	4315	15717.105	0
1	4375	15937.576	0
1	4397	16020.287	0
1	4403	16033.616	1
1	4514	16499.125	0
1	4558	16681.973	0
1	4711	17213.21	1
1	4723	17226.554	0
1	4766	17311.8	0
1	4875	17753.28	1
1	4971	17978.45	0
1	5040	18144.092	1
1	5287	19070.251	0
1	5416	19651.665	0
1	5468	19757.378	0
1	5614	20523.478	0
1	5717	20872.79	1
1	5856	21302.526	0
1	5981	21760.559	0
1	6011	21907.069	1
1	6075	22203.393	0
1	6257	22756.808	0
1	6307	23027.969	0
1	6374	23251.054	0
1	6398	23373.614	1
1	6577	23803.918	0
1	6686	24193.903	1
1	6775	24624.164	0
1	6794	24719.822	0
1	6925	25067.316	0
1	6933	25087.397	1
1	6976	25158.887	0
1	7114	25559.583	0
1	7166	25709.9	0
1	7302	26028.447	1
1	7365	26202.319	0
1	7572	26867.247	0
1	7610	26951.366	0
1	7739	27411.907	0
1	7822	27765.203	0
1	7908	28087.194	0
1	7954	28262.532	0
1	8017	28437.653	1
1	8296	29278.129	0
1	8407	29576.949	0
1	8443	29788.244	0
1	8594	30234.226	0
1	8733	30722.375	0
1	8854	31290.045	0
1	8890	31377.359	0
1	8946	31624.1	0
1	8989	31801.226	0
1	9024	31902.814	0
1	9068	32099.597	0
1	9199	32631.814	0
1	9365	33292.355	0
1	9456	33551.203	0
1	9607	33951.999	0
1	9636	34020.102	0
1	9691	34187.622	0
1	9768	34561.153	0
1	9831	34804.965	0
1	9948	35327.367	0
1	10136	36192.516	0
1	10204	36403.587	1
1	10309	36725.139	0
1	10351	36771.119	1
1	10400	36924.687	0
1	10451	37084.727	0
1	10487	37207.135	1
1	10538	37365.947	0
1	10567	37440.56	1
1	10584	37485.606	0
1	10627	37554.332	0
1	10703	37797.726	0
1	10877	38530.333	0
1	10919	38730.195	0
1	10941	38880.025	0
1	10980	39103.344	0
1	11018	39186.115	1
1	11075	39401.245	0
1	11133	39568.045	0
1	11251	39818.686	0
1	11277	39917.908	1
1	11294	39958.472	0
1	11356	40162.712	0
1	11362	40177.567	1
1	11503	40724.232	0
1	11550	40874.719	0
1	11573	40965.379	0
1	11732	41671.395	0
1	11827	41952.705	0
1	11879	42236.973	0
1	11919	42379.521	0
1	12043	42964.647	0
2	5	3.409	0
2	47	285.44	0
2	105	433.599	0
2	239	877.04	319.781
2	281	1013.791	0
2	381	1383.16	0
2	448	1567.881	0
2	620	2092.432	459.57
2	673	2258.128	0
2	780	2621.513	0
2	802	2713.706	79.314
2	820	2761.934	0
2	850	2950.92	0
2	921	3288.399	0
2	1043	3756.151	211.826
2	1394	4921.887	0
2	1444	5090.798	20.989
2	1484	5189.403	38.545
2	1558	5382.063	0
2	1624	5617.515	0
2	1669	5761.871	0
2	1774	6295.733	0
2	1947	6962.985	0
2	2005	7223.07	0
2	2068	7389.267	0
2	2172	7699.058	0
2	2221	7859.29	0
2	2288	8125.655	0
2	2534	9139.975	0
2	2624	9641.784	0
2	2716	9948.328	0
2	2851	10330.294	13.466
2	3311	12153.222	1693.306
2	3452	12790.906	0
2	3557	13197.708	0
2	3705	13540.368	0
2	3737	13685.604	0
2	3786	13882.509	0
2	3813	13981.282	0
2	3886	14263.831	0
2	3979	14587.947	312.056
2	4021	14719.753	0
2	4122	14984.754	0
2	4270	15526.137	0
2	4304	15668.983	0
2	4483	16297.935	0
2	4533	16601.906	0
2	4676	17097.116	0
2	4787	17399.148	0
2	5149	18451.23	698.394
2	5165	18514.953	0
2	5195	18593.253	0
2	5241	18768.76	0
2	5316	19267.966	0
2	5395	19565.941	0
2	5520	19928.017	0
2	5568	20243.393	0
2	5593	20364.531	0
2	5607	20450.178	0
2	5774	21072.116	0
2	5831	21210.671	0
2	5911	21522.178	0
2	6033	21941.415	0
2	6160	22395.044	0
2	6193	22506.866	0
2	6261	22763.551	0
2	6412	23385.52	0
2	6445	23452.732	0
2	6467	23490.021	0
2	6529	23644.7	0
2	6588	23818.475	75.993
2	6797	24738.261	429.1
2	6851	24893.525	0
2	6858	24937.746	0
2	6938	25095.377	97.736
2	6981	25178.063	0
2	7079	25476.051	0
2	7189	25759.167	0
2	7414	26359.322	0
2	7504	26637.865	72.06
2	7736	27406.423	0
2	7904	28085.967	453.95
2	8077	28678.583	102.485
2	8369	29474.928	749.148
2	8452	29805.933	0
2	8648	30454.004	0
2	8678	30575.133	0
2	8738	30753.033	0
2	8908	31417.473	0
2	8969	31717.757	0
2	9065	32098.601	0
2	9117	32254.559	0
2	9225	32699.068	3.395
2	9337	33151.612	0
2	9493	33631.031	97.303
2	9659	34077.549	278.146
2	9758	34548.672	0
2	9805	34742.156	0
2	9857	34885.898	0
2	9888	35058.352	0
2	9909	35159.597	0
2	10071	35949.569	0
2	10128	36143.783	0
2	10231	36490.811	53.565
2	10270	36609.73	0
2	10366	36868.08	247.832
2	10396	36919.589	25.428
2	10430	36960.289	35.476
2	10508	37287.286	251.697
2	10559	37402.026	0
2	10612	37528.33	0
2	10646	37651.479	0
2	10715	37839.536	0
2	10793	38210.147	87.089
2	10862	38401.214	142.246
2	10873	38513.762	0
2	10885	38589.527	0
2	10931	38823.037	0
2	11201	39715.03	93.795
2	11394	40348.276	554.245
2	11507	40727.034	0
2	11599	41085.313	0
2	11746	41699.781	0
2	11884	42269.2	544.662
2	11924	42381.602	12.995
2	11954	42511.124	0
2	12046	42965.114	391.606
2	12100	43164.084	0
3	5	3.409	0
3	47	285.44	0
3	105	433.599	0
3	154	557.259	1
3	239	877.04	0
3	281	1013.791	0
3	381	1383.16	0
3	448	1567.881	0
3	470	1632.862	1
3	620	2092.432	0
3	673	2258.128	0
3	780	2621.513	0
3	787	2634.392	1
3	802	2713.706	0
3	820	2761.934	0
3	850	2950.92	0
3	921	3288.399	0
3	990	3544.325	1
3	1043	3756.151	0
3	1394	4921.887	0
3	1432	5069.809	1
3	1444	5090.798	0
3	1474	5150.858	1
3	1484	5189.403	0
3	1558	5382.063	0
3	1624	5617.515	0
3	1669	5761.871	0
3	1774	6295.733	0
3	1947	6962.985	0
3	2005	7223.07	0
3	2068	7389.267	0
3	2172	7699.058	0
3	2221	7859.29	0
3	2288	8125.655	0
3	2534	9139.975	0
3	2624	9641.784	0
3	2716	9948.328	0
3	2843	10316.828	1
3	2851	10330.294	0
3	2905	10459.916	1
3	3311	12153.222	0
3	3452	12790.906	0
3	3557	13197.708	0
3	3705	13540.368	0
3	3737	13685.604	0
3	3786	13882.509	0
3	3813	13981.282	0
3	3886	14263.831	0
3	3890	14275.891	1
3	3979	14587.947	0
3	4021	14719.753	0
3	4122	14984.754	0
3	4270	15526.137	0
3	4304	15668.983	0
3	4483	16297.935	0
3	4533	16601.906	0
3	4676	17097.116	0
3	4787	17399.148	0
3	4873	17752.836	1
3	5149	18451.23	0
3	5165	18514.953	0
3	5195	18593.253	0
3	5241	18768.76	0
3	5316	19267.966	0
3	5395	19565.941	0
3	5520	19928.017	0
3	5568	20243.393	0
3	5593	20364.531	0
3	5607	20450.178	0
3	5774	21072.116	0
3	5831	21210.671	0
3	5911	21522.178	0
3	6033	21941.415	0
3	6160	22395.044	0
3	6193	22506.866	0
3	6261	22763.551	0
3	6412	23385.52	0
3	6445	23452.732	0
3	6467	23490.021	0
3	6529	23644.7	0
3	6563	23742.482	1
3	6588	23818.475	0
3	6721	24309.161	1
3	6797	24738.261	0
3	6851	24893.525	0
3	6858	24937.746	0
3	6892	24997.641	1
3	6938	25095.377	0
3	6981	25178.063	0
3	7079	25476.051	0
3	7189	25759.167	0
3	7414	26359.322	0
3	7486	26565.805	1
3	7504	26637.865	0
3	7736	27406.423	0
3	7783	27632.017	1
3	7904	28085.967	0
3	8047	28576.098	1
3	8077	28678.583	0
3	8108	28725.78	1
3	8369	29474.928	0
3	8452	29805.933	0
3	8648	30454.004	0
3	8678	30575.133	0
3	8738	30753.033	0
3	8908	31417.473	0
3	8969	31717.757	0
3	9065	32098.601	0
3	9117	32254.559	0
3	9223	32695.673	1
3	9225	32699.068	0
3	9337	33151.612	0
3	9448	33533.728	1
3	9493	33631.031	0
3	9553	33799.403	1
3	9659	34077.549	0
3	9758	34548.672	0
3	9805	34742.156	0
3	9857	34885.898	0
3	9888	35058.352	0
3	9909	35159.597	0
3	10071	35949.569	0
3	10128	36143.783	0
3	10216	36437.246	1
3	10231	36490.811	0
3	10270	36609.73	0
3	10275	36620.248	1
3	10366	36868.08	0
3	10382	36894.161	1
3	10396	36919.589	0
3	10404	36924.813	1
3	10430	36960.289	0
3	10440	37035.589	1
3	10508	37287.286	0
3	10559	37402.026	0
3	10612	37528.33	0
3	10646	37651.479	0
3	10715	37839.536	0
3	10763	38123.058	1
3	10793	38210.147	0
3	10826	38258.968	1
3	10862	38401.214	0
3	10873	38513.762	0
3	10885	38589.527	0
3	10931	38823.037	0
3	11158	39621.235	1
3	11201	39715.03	0
3	11243	39794.031	1
3	11394	40348.276	0
3	11507	40727.034	0
3	11599	41085.313	0
3	11746	41699.781	0
3	11754	41724.538	1
3	11884	42269.2	0
3	11913	42368.607	1
3	11924	42381.602	0
3	11954	42511.124	0
3	11979	42573.508	1
3	12046	42965.114	0
3	12100	43164.084	0
4	10	41.3	0
4	86	391.89	45.065
4	199	763.655	0
4	253	917.014	0
4	377	1369.162	0
4	465	1626.948	0
4	528	1839.258	0
4	604	2044.187	36.676
4	706	2332.863	138.495
4	813	2751.047	0
4	883	3111.44	0
4	986	3540.028	0
4	1017	3653.446	0
4	1082	3929.171	0
4	1155	4147.069	61.45
4	1297	4633.411	438.111
4	1564	5401.009	149.723
4	1740	6098.355	0
4	1798	6437.641	0
4	1873	6758.457	0
4	1905	6836.448	53.713
4	1953	6977.638	0
4	1988	7149.721	0
4	2049	7359.393	0
4	2218	7856.671	0
4	2409	8658.796	0
4	2453	8868.225	0
4	2604	9549.103	0
4	2663	9735.414	0
4	2723	9975.216	0
4	2895	10424.555	265.032
4	2934	10494.51	0
4	3018	10786.231	0
4	3156	11433.57	0
4	3186	11509.182	0
4	3271	11987.558	0
4	3332	12202.411	0
4	3379	12520.134	0
4	3425	12660.413	0
4	3449	12766.15	0
4	3487	12974.576	0
4	3577	13235.711	19.498
4	3617	13328.103	0
4	3840	14130.112	0
4	4085	14843.572	0
4	4137	15035.594	0
4	4151	15067.163	21.505
4	4328	15739.257	0
4	4355	15885.318	0
4	4400	16022.1	0
4	4497	16412.126	0
4	4518	16507.696	0
4	4647	16979.958	203.992
4	4679	17111.253	0
4	4728	17239.24	0
4	4771	17348.091	69.905
4	4814	17483.713	117.119
4	4945	17920.149	300.926
4	4964	17969.193	46.499
4	5035	18118.417	0
4	5052	18165.249	0
4	5117	18381.575	0
4	5168	18517.794	0
4	5245	18803.726	0
4	5324	19298.134	0
4	5371	19441.839	0
4	5385	19488.811	0
4	5453	19719.771	0
4	5562	20233.964	0
4	5643	20622.452	0
4	5682	20756.093	0
4	5743	20931.056	0
4	5771	21060.485	0
4	5791	21122.204	0
4	5834	21238.779	0
4	5902	21505.315	0
4	6099	22273.311	0
4	6210	22566.231	0
4	6276	22834.377	0
4	6336	23099.777	59.743
4	6348	23150.471	0
4	6483	23531.704	32.499
4	6555	23720.155	0
4	6596	23846.238	0
4	6625	23966.487	0
4	6658	24107.037	0
4	6764	24587.434	0
4	6867	24959.294	0
4	6950	25111.115	5.832
4	6972	25153.913	0
4	7027	25282.244	0
4	7083	25479.604	0
4	7106	25554.397	29.76
4	7154	25688.735	0
4	7210	25793.462	0
4	7256	25906.276	0
4	7283	25975.132	0
4	7322	26072.828	0
4	7433	26402.681	183.953
4	7549	26816.715	0
4	7579	26874.916	0
4	7655	27087.521	0
4	7708	27245.785	0
4	7764	27567.802	0
4	8040	28562.186	718.551
4	8121	28763.448	109.488
4	8145	28803.293	0
4	8202	28987.447	0
4	8279	29240.094	0
4	8360	29450.999	141.325
4	8435	29741.281	0
4	8538	30090.532	220.608
4	8574	30190.786	0
4	8659	30492.472	0
4	8707	30662.635	0
4	8768	30837.427	0
4	8844	31247.798	0
4	8903	31388.644	0
4	9194	32605.443	0
4	9254	32797.049	113.665
4	9298	33000.31	0
4	9383	33366.129	0
4	9413	33455.719	0
4	9594	33925.216	372.763
4	9684	34166.458	0
4	9743	34491.84	0
4	9841	34829.505	0
4	9962	35381.034	0
4	10003	35575.183	0
4	10031	35746.017	0
4	10125	36114.274	0
4	10374	36869.573	458.331
4	10408	36926.779	115.444
4	10474	37145.469	0
4	10513	37304.263	55.684
4	10649	37655.762	213.329
4	10823	38255.042	0
4	10913	38706.041	0
4	10957	39038.119	0
4	11000	39144.129	0
4	11024	39191.499	0
4	11185	39677.507	0
4	11279	39925.192	83.394
4	11322	40055.516	0
4	11379	40228.773	54.527
4	11401	40365.215	0
4	11451	40574.26	0
4	11526	40815.58	0
4	11660	41378.519	0
4	11677	41451.346	0
4	11802	41853.568	0
4	11907	42346.561	0
5	10	41.3	0
5	61	346.825	1
5	86	391.89	0
5	199	763.655	0
5	253	917.014	0
5	377	1369.162	0
5	465	1626.948	0
5	528	1839.258	0
5	594	2007.511	1
5	604	2044.187	0
5	659	2194.368	1
5	706	2332.863	0
5	813	2751.047	0
5	883	3111.44	0
5	986	3540.028	0
5	1017	3653.446	0
5	1082	3929.171	0
5	1141	4085.619	1
5	1155	4147.069	0
5	1176	4195.3	1
5	1297	4633.411	0
5	1497	5251.286	1
5	1564	5401.009	0
5	1740	6098.355	0
5	1798	6437.641	0
5	1873	6758.457	0
5	1880	6782.735	1
5	1905	6836.448	0
5	1953	6977.638	0
5	1988	7149.721	0
5	2049	7359.393	0
5	2218	7856.671	0
5	2409	8658.796	0
5	2453	8868.225	0
5	2604	9549.103	0
5	2663	9735.414	0
5	2723	9975.216	0
5	2782	10159.523	1
5	2895	10424.555	0
5	2934	10494.51	0
5	3018	10786.231	0
5	3156	11433.57	0
5	3186	11509.182	0
5	3271	11987.558	0
5	3332	12202.411	0
5	3379	12520.134	0
5	3425	12660.413	0
5	3449	12766.15	0
5	3487	12974.576	0
5	3569	13216.213	1
5	3577	13235.711	0
5	3617	13328.103	0
5	3840	14130.112	0
5	4085	14843.572	0
5	4137	15035.594	0
5	4140	15045.658	1
5	4151	15067.163	0
5	4328	15739.257	0
5	4355	15885.318	0
5	4400	16022.1	0
5	4497	16412.126	0
5	4518	16507.696	0
5	4581	16775.966	1
5	4647	16979.958	0
5	4679	17111.253	0
5	4728	17239.24	0
5	4750	17278.186	1
5	4771	17348.091	0
5	4775	17366.594	1
5	4814	17483.713	0
5	4846	17619.223	1
5	4945	17920.149	0
5	4949	17922.694	1
5	4964	17969.193	0
5	5035	18118.417	0
5	5052	18165.249	0
5	5117	18381.575	0
5	5168	18517.794	0
5	5245	18803.726	0
5	5324	19298.134	0
5	5371	19441.839	0
5	5385	19488.811	0
5	5453	19719.771	0
5	5562	20233.964	0
5	5643	20622.452	0
5	5682	20756.093	0
5	5743	20931.056	0
5	5771	21060.485	0
5	5791	21122.204	0
5	5834	21238.779	0
5	5902	21505.315	0
5	6099	22273.311	0
5	6210	22566.231	0
5	6276	22834.377	0
5	6314	23040.034	1
5	6336	23099.777	0
5	6348	23150.471	0
5	6474	23499.205	1
5	6483	23531.704	0
5	6555	23720.155	0
5	6596	23846.238	0
5	6625	23966.487	0
5	6658	24107.037	0
5	6764	24587.434	0
5	6867	24959.294	0
5	6946	25105.283	1
5	6950	25111.115	0
5	6972	25153.913	0
5	7027	25282.244	0
5	7083	25479.604	0
5	7092	25524.637	1
5	7106	25554.397	0
5	7154	25688.735	0
5	7210	25793.462	0
5	7256	25906.276	0
5	7283	25975.132	0
5	7322	26072.828	0
5	7373	26218.728	1
5	7433	26402.681	0
5	7549	26816.715	0
5	7579	26874.916	0
5	7655	27087.521	0
5	7708	27245.785	0
5	7764	27567.802	0
5	7848	27843.635	1
5	8040	28562.186	0
5	8065	28653.96	1
5	8121	28763.448	0
5	8145	28803.293	0
5	8202	28987.447	0
5	8279	29240.094	0
5	8309	29309.674	1
5	8360	29450.999	0
5	8435	29741.281	0
5	8463	29869.924	1
5	8538	30090.532	0
5	8574	30190.786	0
5	8659	30492.472	0
5	8707	30662.635	0
5	8768	30837.427	0
5	8844	31247.798	0
5	8903	31388.644	0
5	9194	32605.443	0
5	9219	32683.384	1
5	9254	32797.049	0
5	9298	33000.31	0
5	9383	33366.129	0
5	9413	33455.719	0
5	9459	33552.453	1
5	9594	33925.216	0
5	9684	34166.458	0
5	9743	34491.84	0
5	9841	34829.505	0
5	9962	35381.034	0
5	10003	35575.183	0
5	10031	35746.017	0
5	10125	36114.274	0
5	10207	36411.242	1
5	10359	36811.335	2
5	10374	36869.573	1
5	10408	36926.779	0
5	10474	37145.469	0
5	10497	37248.579	1
5	10513	37304.263	0
5	10569	37442.433	1
5	10649	37655.762	0
5	10823	38255.042	0
5	10913	38706.041	0
5	10957	39038.119	0
5	11000	39144.129	0
5	11024	39191.499	0
5	11185	39677.507	0
5	11256	39841.798	1
5	11279	39925.192	0
5	11322	40055.516	0
5	11360	40174.246	1
5	11379	40228.773	0
5	11401	40365.215	0
5	11451	40574.26	0
5	11526	40815.58	0
5	11660	41378.519	0
5	11677	41451.346	0
5	11802	41853.568	0
5	11907	42346.561	0
6	14	130.23	0
6	50	307.313	0
6	124	482.988	0
6	264	958.109	0
6	345	1221.199	0
6	498	1728.977	277.13
6	688	2287.436	334.138
6	748	2534.068	0
6	886	3127.723	0
6	937	3306.244	0
6	1079	3928.801	0
6	1183	4240.214	0
6	1266	4512.814	0
6	1334	4745.644	0
6	1518	5296.189	533.598
6	1603	5569.343	226.863
6	1705	6012.33	0
6	1780	6318.846	0
6	1828	6584.416	0
6	1843	6694.114	0
6	1991	7153.77	0
6	2082	7414.214	28.335
6	2154	7641.974	0
6	2229	7873.844	0
6	2356	8405.154	0
6	2444	8841.392	0
6	2478	8924.189	0
6	2597	9515.061	0
6	2621	9636.524	0
6	2758	10091.105	0
6	2836	10305.962	105.163
6	2877	10393.053	0
6	3008	10759.55	354.329
6	3048	10944.405	0
6	3092	11193.075	0
6	3263	11972.458	0
6	3286	12032.564	0
6	3360	12379.538	0
6	3384	12544.044	0
6	3549	13180.984	0
6	3621	13333.547	0
6	3728	13668.009	0
6	3783	13875.894	0
6	3858	14192.443	0
6	3927	14372.154	0
6	3974	14574.304	0
6	4006	14704.632	0
6	4054	14768.548	0
6	4111	14913.051	0
6	4166	15099.552	0
6	4214	15235.934	96.932
6	4312	15702.853	0
6	4415	16045.416	0
6	4457	16194.399	0
6	4562	16742.58	0
6	4588	16794.124	0
6	4707	17206.255	287.135
6	4811	17475.512	0
6	5126	18396.679	663.879
6	5278	19063.325	0
6	5342	19360.245	0
6	5450	19716.227	0
6	5554	20140.777	0
6	5653	20648.694	0
6	5710	20868.27	0
6	5760	20996.653	0
6	5841	21247.498	0
6	5957	21715.376	0
6	6005	21895.041	0
6	6108	22282.652	0
6	6128	22319.741	0
6	6240	22679.998	0
6	6394	23334.369	0
6	6496	23576.548	47.14
6	6647	24074.105	338.458
6	6674	24161.482	0
6	6698	24241.663	0
6	6806	24743.125	421.721
6	6877	24979.683	0
6	7023	25280.758	192.758
6	7237	25872.424	555.425
6	7537	26784.418	908.516
6	7634	27021.318	0
6	7725	27352.187	0
6	7921	28150.818	0
6	7999	28388.185	0
6	8125	28771.135	349.131
6	8353	29448.795	457.702
6	8395	29526.538	0
6	8483	29934.817	0
6	8561	30143.042	0
6	8601	30245.489	0
6	8747	30767.23	0
6	8873	31353.527	0
6	8942	31610.668	0
6	9178	32565.062	0
6	9265	32830.672	0
6	9324	33129.115	0
6	9402	33410.497	0
6	9728	34419.413	914.247
6	9878	35027.716	0
6	10044	35859.213	0
6	10111	36076.582	0
6	10326	36739.707	54.744
6	10370	36868.467	80.502
6	10456	37097.959	186.553
6	10777	38172.815	0
6	11041	39238.865	0
6	11079	39401.703	0
6	11122	39538.795	0
6	11335	40113.277	466.301
6	11438	40522.634	0
6	11564	40956.79	0
6	11650	41333.22	0
6	11700	41548.677	0
6	11898	42326.86	444.477
6	11998	42641.169	0
7	14	130.23	0
7	50	307.313	0
7	124	482.988	0
7	264	958.109	0
7	345	1221.199	0
7	411	1451.847	1
7	498	1728.977	0
7	576	1953.298	1
7	688	2287.436	0
7	748	2534.068	0
7	886	3127.723	0
7	937	3306.244	0
7	1079	3928.801	0
7	1183	4240.214	0
7	1266	4512.814	0
7	1334	4745.644	0
7	1340	4762.591	1
7	1518	5296.189	0
7	1535	5342.48	1
7	1603	5569.343	0
7	1705	6012.33	0
7	1780	6318.846	0
7	1828	6584.416	0
7	1843	6694.114	0
7	1991	7153.77	0
7	2060	7385.879	1
7	2082	7414.214	0
7	2154	7641.974	0
7	2229	7873.844	0
7	2356	8405.154	0
7	2444	8841.392	0
7	2478	8924.189	0
7	2597	9515.061	0
7	2621	9636.524	0
7	2758	10091.105	0
7	2809	10200.799	1
7	2836	10305.962	0
7	2877	10393.053	0
7	2883	10405.221	1
7	3008	10759.55	0
7	3048	10944.405	0
7	3092	11193.075	0
7	3263	11972.458	0
7	3286	12032.564	0
7	3360	12379.538	0
7	3384	12544.044	0
7	3549	13180.984	0
7	3621	13333.547	0
7	3728	13668.009	0
7	3783	13875.894	0
7	3858	14192.443	0
7	3927	14372.154	0
7	3974	14574.304	0
7	4006	14704.632	0
7	4054	14768.548	0
7	4111	14913.051	0
7	4166	15099.552	0
7	4179	15139.002	1
7	4214	15235.934	0
7	4312	15702.853	0
7	4415	16045.416	0
7	4457	16194.399	0
7	4562	16742.58	0
7	4588	16794.124	0
7	4633	16919.12	1
7	4707	17206.255	0
7	4811	17475.512	0
7	4869	17732.8	1
7	5126	18396.679	0
7	5278	19063.325	0
7	5342	19360.245	0
7	5450	19716.227	0
7	5554	20140.777	0
7	5653	20648.694	0
7	5710	20868.27	0
7	5760	20996.653	0
7	5841	21247.498	0
7	5957	21715.376	0
7	6005	21895.041	0
7	6108	22282.652	0
7	6128	22319.741	0
7	6240	22679.998	0
7	6394	23334.369	0
7	6481	23529.408	1
7	6496	23576.548	0
7	6558	23735.647	1
7	6647	24074.105	0
7	6674	24161.482	0
7	6698	24241.663	0
7	6723	24321.404	1
7	6806	24743.125	0
7	6877	24979.683	0
7	6935	25088	1
7	7023	25280.758	0
7	7034	25316.999	1
7	7237	25872.424	0
7	7242	25875.902	1
7	7537	26784.418	0
7	7634	27021.318	0
7	7725	27352.187	0
7	7921	28150.818	0
7	7999	28388.185	0
7	8014	28422.004	1
7	8125	28771.135	0
7	8205	28991.093	1
7	8353	29448.795	0
7	8395	29526.538	0
7	8483	29934.817	0
7	8561	30143.042	0
7	8601	30245.489	0
7	8747	30767.23	0
7	8873	31353.527	0
7	8942	31610.668	0
7	9178	32565.062	0
7	9265	32830.672	0
7	9324	33129.115	0
7	9402	33410.497	0
7	9438	33505.166	1
7	9728	34419.413	0
7	9878	35027.716	0
7	10044	35859.213	0
7	10111	36076.582	0
7	10298	36684.963	1
7	10326	36739.707	0
7	10355	36787.965	1
7	10370	36868.467	0
7	10392	36911.406	1
7	10456	37097.959	0
7	10777	38172.815	0
7	11041	39238.865	0
7	11079	39401.703	0
7	11122	39538.795	0
7	11170	39646.976	1
7	11335	40113.277	0
7	11438	40522.634	0
7	11564	40956.79	0
7	11650	41333.22	0
7	11700	41548.677	0
7	11811	41882.383	1
7	11898	42326.86	0
7	11998	42641.169	0
8	17	131.486	0
8	195	739.692	0
8	221	847.318	0
8	388	1389.872	0
8	502	1747.2	0
8	552	1875.759	0
8	710	2337.559	429.58
8	760	2583.364	0
8	860	3041.617	0
8	967	3471.996	0
8	1065	3849.785	194.277
8	1102	3969.547	0
8	1134	4063.517	0
8	1218	4338.843	0
8	1314	4708.755	0
8	1550	5376.703	644.096
8	1646	5699.924	0
8	1680	5902.042	0
8	1789	6416.131	0
8	1862	6741.195	0
8	2039	7327.135	0
8	2128	7572.965	0
8	2212	7854.027	0
8	2304	8188.369	0
8	2344	8360.799	0
8	2389	8599.267	0
8	2578	9471.377	520.384
8	2639	9687.99	0
8	2666	9753.15	0
8	2980	10682.765	622.403
8	3062	11081.49	0
8	3083	11180.421	0
8	3197	11592.777	0
8	3256	11946.752	0
8	3338	12227.393	0
8	3392	12586.989	0
8	3419	12647.252	0
8	3535	13150.951	0
8	3560	13207.355	0
8	3688	13501.795	287.096
8	3745	13714.116	0
8	3861	14196.886	0
8	3968	14549.982	0
8	4037	14738.776	126.236
8	4091	14846.515	0
8	4171	15123.965	59.133
8	4259	15439.678	0
8	4469	16227.095	0
8	4536	16607.173	0
8	4578	16773.057	0
8	4703	17195.335	44.529
8	4838	17597.814	0
8	4889	17785.266	0
8	4984	17983.547	176.536
8	5067	18211.104	0
8	5088	18289.03	42.188
8	5251	18826.938	0
8	5302	19153.269	0
8	5419	19654.486	0
8	5496	19836.551	0
8	5551	20121.128	0
8	5617	20535.036	0
8	5662	20685.636	0
8	5691	20771.904	0
8	5807	21160.706	0
8	5932	21625.663	0
8	5966	21732.439	104.658
8	6020	21929.034	0
8	6086	22248.83	0
8	6170	22424.618	87.803
8	6284	22904.672	0
8	6409	23384.307	0
8	6451	23463.551	0
8	6523	23638.221	0
8	6593	23837.559	0
8	6757	24556.937	0
8	6887	24990.216	0
8	6986	25193.079	83.423
8	7117	25566.368	254.771
8	7144	25656.804	0
8	7213	25799.082	0
8	7291	26002.191	0
8	7337	26127.673	0
8	7406	26334.956	0
8	7462	26485.763	0
8	7520	26730.738	0
8	7585	26894.616	0
8	7623	27012.944	7.893
8	7868	27915.091	0
8	7897	28052.722	0
8	8023	28453.743	41.536
8	8194	28979.79	318.823
8	8304	29303.394	196.481
8	8414	29608.572	0
8	8505	29979.946	21.536
8	8577	30209.829	150.882
8	8655	30480.074	0
8	8712	30680.827	0
8	8772	30867.311	0
8	8840	31186.503	0
8	8896	31383.459	0
8	8992	31802.51	0
8	9054	32061.134	0
8	9203	32638.542	0
8	9316	33077.076	0
8	9371	33304.714	0
8	9443	33519.039	0
8	9477	33596.946	0
8	9642	34026.403	0
8	9709	34227.54	0
8	9761	34549.765	0
8	9916	35197.502	0
8	9958	35369.48	0
8	9990	35535.409	0
8	10056	35876.483	0
8	10095	36011.872	0
8	10156	36262.565	0
8	10318	36731.606	55.664
8	10534	37357.461	614.937
8	10656	37671.563	0
8	10695	37775.177	0
8	10742	38028.441	0
8	10797	38210.264	0
8	10891	38617.354	0
8	11105	39480.56	353.097
8	11141	39586.228	0
8	11195	39694.729	50.398
8	11352	40158.351	282.367
8	11459	40596.19	0
8	11500	40704.612	0
8	11561	40950.719	0
8	11621	41251.738	0
8	11663	41391.69	0
8	11714	41606.785	0
8	11830	41954.451	235.31
8	11876	42221.297	0
8	11964	42544.394	0
8	12067	43008.471	0
9	17	131.486	0
9	195	739.692	0
9	221	847.318	0
9	388	1389.872	0
9	502	1747.2	0
9	552	1875.759	0
9	561	1907.979	1
9	710	2337.559	0
9	760	2583.364	0
9	860	3041.617	0
9	967	3471.996	0
9	1020	3655.508	1
9	1065	3849.785	0
9	1102	3969.547	0
9	1134	4063.517	0
9	1218	4338.843	0
9	1314	4708.755	0
9	1328	4732.607	1
9	1550	5376.703	0
9	1646	5699.924	0
9	1680	5902.042	0
9	1789	6416.131	0
9	1862	6741.195	0
9	2039	7327.135	0
9	2128	7572.965	0
9	2212	7854.027	0
9	2304	8188.369	0
9	2344	8360.799	0
9	2389	8599.267	0
9	2484	8950.993	1
9	2578	9471.377	0
9	2639	9687.99	0
9	2666	9753.15	0
9	2745	10060.362	1
9	2980	10682.765	0
9	3062	11081.49	0
9	3083	11180.421	0
9	3197	11592.777	0