version 2
run General-0-20220309-03:57:46-18204
attr configname General
attr datetime 20220309-03:57:46
attr experiment General
attr inifile omnetpp.ini
attr iterationvars $0=123
attr iterationvarsf 123-
attr measurement $0=123
attr network PolicyA
attr processid 18204
attr repetition 0
attr replication #0
attr resultdir results
attr runnumber 0
attr seedset 123

vector 0 PolicyA.queue "time spent on the queue" ETV
attr interpolationmode none
vector 1 PolicyA.queue "queue size after modification" ETV
attr interpolationmode none
vector 2 PolicyA.queue "queue size per minute" ETV
attr interpolationmode none
vector 3 PolicyA.queue "client processing order" ETV
attr interpolationmode none
vector 4 PolicyA.queue "processing time with client order" ETV
attr interpolationmode none
vector 5 PolicyA.queue "till processing order" ETV
attr interpolationmode none
vector 6 PolicyA.queue "client total time in the till" ETV
attr interpolationmode none
vector 7 PolicyA.source "number of clients entering the queue per timer interval" ETV
attr interpolationmode none
0	2	0	0
0	6	35.768	0
0	9	45.88	0
0	13	62.663	0
0	16	70.382	0
0	21	94.425	0
0	27	132.557	0
0	34	177.985	0
0	44	212.624	0
0	50	238.627	0
0	56	243.15	0
0	60	258.083	0
0	63	270.693	0
0	72	300.304	0
0	76	308.726	0
0	79	310.572	0
0	88	346.171	0
0	97	376.144	0
0	103	393.552	0
0	105	396.175	0
0	112	418.925	0
0	119	441.693	0
0	126	471.88	0
0	133	492.203	0
0	141	532.649	0
0	146	545.931	0
0	149	562.129	0
0	154	573.83	0
0	158	587.303	0
0	169	610.543	9.197
0	174	621.024	11.661
0	177	625.188	5.393
0	188	663.368	0
0	195	680.427	0
0	199	686.158	0
0	208	706.576	0
0	215	723.221	0
0	225	734.451	0
0	229	751.123	0
0	236	818.28	0
0	241	839.185	0
0	245	857.909	0
0	252	887.25	0
0	257	898.06	0
0	265	909.51	0
0	270	925.585	0
0	283	985.952	0
0	290	1005.745	0
0	295	1026.27	0
0	297	1034.222	0
0	302	1056.209	0
0	310	1084.681	0
0	316	1104.35	0
0	328	1152.294	0
0	331	1175.922	0
0	337	1192.966	0
0	339	1193.26	0
0	343	1204.137	0
0	351	1233.368	16.729
0	362	1251.704	0
0	375	1314.197	0
0	379	1347.395	0
0	383	1356.766	0
0	395	1411.196	0
0	401	1444.885	0
0	407	1467.54	0
0	409	1473.325	0
0	412	1475.931	0
0	418	1487.28	0
0	437	1553.802	0
0	441	1579.293	0
0	445	1586.452	0
0	450	1608.526	0
0	465	1673.496	0
0	470	1712.053	0
0	472	1712.541	0
0	476	1731.989	0
0	484	1759.063	0
0	488	1780.293	0
0	490	1790.181	0
0	497	1795.165	0
0	509	1838.462	0
0	515	1873.789	0
0	531	1945.951	0
0	534	1960.728	0
0	537	1974.262	0
0	547	2052.023	0
0	550	2065.29	0
0	553	2080.264	0
0	555	2081.601	0
0	557	2089.493	0
0	563	2100.398	0
0	573	2137.99	22.358
0	578	2152.251	0
0	585	2182.736	0
0	604	2225.87	0
0	610	2261.171	0
0	612	2266.086	0
0	616	2276.47	0
0	620	2291.739	0
0	632	2334.9	0
0	644	2396.926	0
0	651	2429.881	0
0	657	2453.973	0
0	661	2462.216	0
0	664	2466.425	0
0	668	2478.082	0
0	672	2496.581	0
0	675	2503.02	0
0	681	2513.451	0
0	690	2564.552	0
0	696	2603.118	27.138
0	704	2625.664	0
0	716	2686.543	0
0	731	2739.546	0
0	736	2751.951	0
0	740	2771.48	0
0	747	2795.594	0
0	752	2821.664	0
0	755	2832.761	0
0	757	2832.842	0
0	772	2908.57	0
0	775	2915.552	0
0	780	2938.919	0
0	785	2949.299	0
0	789	2971.319	0
0	805	3040.976	0
0	808	3049.91	0
0	814	3087.588	0
0	821	3136.935	0
0	824	3151.98	0
0	837	3182.034	0
0	847	3243.969	0
0	850	3271.51	0
0	863	3402.919	0
0	873	3526.09	0
0	876	3528.571	0
0	878	3530.602	0
0	883	3547.379	0
0	885	3547.54	0
0	887	3554.405	0
0	906	3619.801	0
0	911	3630.367	0
0	921	3681.37	0
0	926	3706.62	0
0	928	3708.352	0
0	936	3726.694	0
0	942	3768.709	0
0	944	3770.203	0
0	949	3786.38	0
0	956	3823.382	0
0	960	3837.796	0
0	974	3887.208	0
0	977	3897.337	0
0	984	3932.106	0
0	1003	4079.35	0
0	1007	4082.893	0
0	1012	4089.221	0
0	1017	4122.018	0
0	1022	4142.955	0
0	1025	4158.448	0
0	1029	4175.86	0
0	1039	4193.159	0
0	1047	4236.616	0
0	1049	4239.278	0
0	1060	4303.225	0
0	1069	4353.822	0
0	1072	4366.154	0
0	1074	4371.799	0
0	1095	4450.556	0
0	1098	4476.16	0
0	1102	4488.563	0
0	1106	4505.992	0
0	1108	4508.466	0
0	1114	4543.012	0
0	1125	4594.708	0
0	1127	4598.839	0
0	1130	4601.328	0
0	1132	4603.888	0
0	1138	4623.819	0
0	1146	4649.703	21.415
0	1154	4664.264	0
0	1160	4689.045	0
0	1168	4709.501	0
0	1175	4730.041	0
0	1186	4780.124	0
0	1196	4829.622	0
0	1198	4829.846	0
0	1206	4861.818	0
0	1210	4880.453	0
0	1218	4905.426	0
0	1222	4921.971	0
0	1225	4928.895	0
0	1234	4966.845	0
0	1240	4981.137	0
0	1251	5034.8	0
0	1257	5065.11	0
0	1265	5083.96	0
0	1275	5117.554	0
0	1280	5136.766	0
0	1287	5173.096	0
0	1303	5274.272	0
0	1306	5276.345	0
0	1308	5278.141	0
0	1314	5309.925	0
0	1328	5476.223	0
0	1335	5501.807	0
0	1343	5577.767	0
0	1350	5613.87	0
0	1354	5646.338	0
0	1367	5762.754	0
0	1371	5809.904	0
0	1377	5831.843	0
0	1380	5842.768	0
0	1384	5859.415	0
0	1395	5905.977	0
0	1398	5925.654	0
0	1408	5974.944	0
0	1411	5986.572	0
0	1419	6018.517	0
0	1426	6059.826	0
0	1432	6076.028	0
0	1434	6079.496	0
0	1451	6214.886	0
0	1458	6289.493	0
0	1464	6364.67	0
0	1466	6367.542	0
0	1472	6396.985	0
0	1479	6415.674	0
0	1484	6435.963	0
0	1496	6487.431	0
0	1503	6495.731	0
0	1505	6499.611	0
0	1508	6502.623	0
0	1513	6520.352	0
0	1515	6521.606	0
0	1529	6571.081	0
0	1534	6581.865	0
0	1537	6594.329	0
0	1552	6712.576	0
0	1558	6742.106	0
0	1564	6766.317	0
0	1566	6770.057	0
0	1572	6789.959	0
0	1590	6923.477	0
0	1593	6926.539	0
0	1596	6932.559	0
0	1599	6951.151	0
0	1608	6973.233	0
0	1611	6984.519	0
0	1622	7032.641	0
0	1627	7039.646	0
0	1630	7048.203	0
0	1633	7065.779	0
0	1640	7093.595	0
0	1654	7161.875	0
0	1667	7264.665	0
0	1670	7296.224	0
0	1675	7330.748	0
0	1687	7418.658	0
0	1690	7427.972	0
0	1692	7429.55	0
0	1697	7450.469	0
0	1704	7464.825	0
0	1722	7613.823	0
0	1726	7627.889	0
0	1729	7639.572	0
0	1733	7646.796	0
0	1735	7650.139	0
0	1743	7675.856	0
0	1748	7686.582	0
0	1755	7716.772	0
0	1759	7732.156	0
0	1770	7775.662	0
0	1788	7896.911	0
0	1791	7919.811	0
0	1796	7939.119	0
0	1802	7963.004	0
0	1807	7980.191	0
0	1810	7990.751	0
0	1817	8020.745	0
0	1829	8075.365	0
0	1831	8075.852	0
0	1843	8168.158	0
0	1851	8213.197	0
0	1853	8214.606	0
0	1860	8261.742	0
0	1870	8368.004	0
0	1878	8429.602	0
0	1885	8466.755	0
0	1894	8562.224	0
0	1897	8579.078	0
0	1904	8612.817	0
0	1910	8648.874	0
0	1921	8728.551	0
0	1923	8733.383	0
0	1936	8919.525	0
0	1945	8973.167	0
0	1953	9029.302	0
0	1956	9033.271	0
0	1962	9088.045	0
0	1964	9088.541	0
0	1972	9111.801	0
0	1983	9150.117	0
0	1985	9152.776	0
0	1989	9166.281	0
0	1993	9173.947	0
0	1998	9185.438	0
0	2011	9247.851	0
0	2016	9273.038	0
0	2023	9302.727	0
0	2037	9405.533	0
0	2043	9437.981	0
0	2047	9446.468	0
0	2049	9448.889	0
0	2053	9465.16	0
0	2065	9531.95	0
0	2071	9558.515	0
0	2073	9558.542	0
0	2086	9647.383	0
0	2090	9668.211	0
0	2098	9698.105	0
0	2102	9710.151	0
0	2108	9776.095	0
0	2111	9782.728	0
0	2113	9785.7	0
0	2117	9787.305	0
0	2126	9824.102	0
0	2140	9887.814	0
0	2142	9888.623	0
0	2149	9907.67	0
0	2160	9983.498	0
0	2169	10053.871	0
0	2177	10081.93	0
0	2183	10107.919	0
0	2189	10162.385	0
0	2194	10175.288	0
0	2203	10247.993	0
0	2214	10290.163	0
0	2217	10303.99	0
0	2222	10319.428	0
0	2227	10327.749	0
0	2238	10411.008	0
0	2243	10423.876	0
0	2246	10434.478	0
0	2252	10464.684	0
0	2256	10484.219	0
0	2260	10494.173	0
0	2269	10506.473	0
0	2273	10522.739	0
0	2278	10538.869	0
0	2287	10590.699	0
0	2297	10686.778	0
0	2302	10703.252	0
0	2316	10757.428	0
0	2321	10761.174	0
0	2324	10782.611	0
0	2330	10793.356	0
0	2333	10798.065	0
0	2337	10800.966	0
0	2343	10824.391	0
0	2353	10850.42	0
0	2358	10884.55	0
0	2369	10922.777	0
0	2377	10946.898	0
0	2385	10967.992	0
0	2388	10970.582	0
0	2397	11011.198	0
0	2402	11023.43	0
0	2407	11049.936	0
0	2411	11088.416	0
0	2415	11091.061	0
0	2432	11164.019	0
0	2435	11171.965	0
0	2437	11175.513	0
0	2446	11216.708	0
0	2450	11223.417	0
0	2452	11229.462	0
0	2464	11281.002	0
0	2472	11326.394	0
0	2475	11334.528	0
0	2477	11338.924	0
0	2484	11351.054	0
0	2486	11356.976	0
0	2499	11449.153	0
0	2512	11484.132	0
0	2515	11490.988	0
0	2520	11512.923	0
0	2528	11532.008	0
0	2530	11532.905	0
0	2541	11566.626	0
0	2543	11566.807	0
0	2545	11570.541	0
0	2551	11573.285	0
0	2559	11586.061	0
0	2577	11672.73	0
0	2582	11686.138	0
0	2592	11726.827	0
0	2599	11743.231	0
0	2605	11780.041	0
0	2616	11836.117	0
0	2619	11854.396	0
0	2622	11859.504	0
0	2626	11869.351	0
0	2638	11950.394	0
0	2650	12022.537	0
0	2652	12023.869	0
0	2656	12046.147	0
0	2663	12082.986	0
0	2666	12100.608	0
0	2671	12126.718	0
0	2683	12168.582	0
0	2688	12183.685	0
0	2691	12202.497	0
0	2704	12290.689	0
0	2708	12304.497	0
0	2710	12309.971	0
0	2717	12338.372	0
0	2721	12345.297	0
0	2723	12350.709	0
0	2741	12428.586	0
0	2748	12449.95	0
0	2752	12469.812	0
0	2765	12547.483	0
0	2769	12598.262	0
0	2774	12609.963	0
0	2781	12659.182	0
0	2792	12790.288	0
0	2795	12806.049	0
0	2799	12839.816	0
0	2806	12868.25	0
0	2812	12899.921	0
0	2815	12901.701	0
0	2818	12904.289	0
0	2823	12913.469	0
0	2835	12953.11	0
0	2848	12978.226	0
0	2850	12978.929	0
0	2866	13071.184	0
0	2872	13100.626	0
0	2878	13156.383	0
0	2881	13172.907	0
0	2886	13183.634	0
0	2890	13197.59	0
0	2902	13258.41	0
0	2904	13259.034	0
0	2908	13262.073	0
0	2918	13337.14	0
0	2921	13346.866	0
0	2923	13351.36	0
0	2927	13373.598	0
0	2931	13387.577	0
0	2953	13521.364	0
0	2958	13537.206	0
0	2964	13557.314	0
0	2969	13585.254	0
0	2971	13585.469	0
0	2975	13593.905	0
0	2977	13594.302	0
0	2989	13626.379	0
0	2999	13663.452	0
0	3005	13682.348	0
0	3010	13701.361	0
0	3014	13715.466	0
0	3021	13738.949	0
0	3025	13758.632	0
0	3030	13790.312	0
0	3036	13805.754	0
0	3048	13850.448	0
0	3058	13894.621	0
0	3066	13923.076	0
0	3085	14048.037	0
0	3089	14084.638	0
0	3092	14097.539	0
0	3097	14128.226	0
0	3103	14156.089	0
0	3114	14227.36	0
0	3117	14258.499	0
0	3124	14282.557	0
0	3128	14296.652	0
0	3132	14325.694	0
0	3136	14337.755	0
0	3139	14340.931	0
0	3148	14372.293	0
0	3158	14411.863	0
0	3160	14413.462	0
0	3162	14420.36	0
0	3166	14430.817	0
0	3177	14467.858	11.938
0	3184	14497.682	31.609
0	3186	14498.399	23.764
0	3194	14522.951	19.756
0	3198	14525.219	0
0	3207	14565.493	38.59
0	3224	14660.131	0
0	3226	14660.133	0
0	3237	14704.153	0
0	3244	14768.447	0
0	3255	14844.022	0
0	3258	14860.132	0
0	3265	14885.406	0
0	3269	14910.333	0
0	3271	14916.462	0
0	3278	14931.404	0
0	3291	14988.629	0
0	3299	15055.92	0
0	3303	15076.506	0
0	3318	15204.727	0
0	3321	15215.67	0
0	3329	15261.267	0
0	3332	15283.138	0
0	3340	15342.744	0
0	3347	15401.228	0
0	3354	15477.907	0
0	3358	15488.752	0
0	3370	15543.897	0
0	3375	15571.019	0
0	3381	15604.786	0
0	3388	15649.261	0
0	3392	15664.464	0
0	3399	15705.426	0
0	3407	15734.232	0
0	3411	15758.782	0
0	3415	15766.987	0
0	3429	15913.686	0
0	3434	15921.163	0
0	3436	15924.503	0
0	3442	15936.19	0
0	3453	15965.772	0
0	3465	16038.933	0
0	3468	16061.133	0
0	3471	16073.973	0
0	3474	16075.009	0
0	3487	16196.587	0
0	3489	16198.409	0
0	3500	16269.859	0
0	3503	16284.121	0
0	3507	16293.955	0
0	3511	16298.329	0
0	3520	16333.503	0
0	3522	16334.445	0
0	3538	16367.807	0
0	3541	16371.402	0
0	3546	16393.727	0
0	3555	16416.871	0
0	3566	16510.961	0
0	3574	16558.906	0
0	3578	16588.566	0
0	3590	16664.461	0
0	3596	16688.182	0
0	3601	16723.133	0
0	3607	16748.283	0
0	3611	16773.579	0
0	3617	16784.609	0
0	3626	16842.116	0
0	3628	16845.616	0
0	3631	16856.657	0
0	3643	16907.621	0
0	3649	16930.533	0
0	3655	16944.084	0
0	3665	16992.891	0
0	3674	17024.166	0
0	3683	17103.672	0
0	3687	17146.491	0
0	3693	17168.947	0
0	3696	17180.596	0
0	3707	17243.165	0
0	3709	17244.235	0
0	3713	17254.311	0
0	3715	17258.962	0
0	3726	17304.654	0
0	3733	17322.149	0
0	3741	17382.546	0
0	3748	17392.591	0
0	3758	17460.387	0
0	3763	17477.407	0
0	3771	17538.946	0
0	3774	17570.284	0
0	3782	17614.383	0
0	3793	17671.791	0
0	3801	17765.711	0
0	3804	17801.625	0
0	3809	17809.018	0
0	3820	17858.338	0
0	3824	17886.221	0
0	3834	17942.203	0
0	3838	17979.94	0
0	3842	17981.193	0
0	3844	17982.381	0
0	3855	18004.158	0
0	3864	18044.711	0
0	3870	18063.484	0
0	3876	18142.549	0
0	3881	18158.013	0
0	3891	18197.169	0
0	3898	18219.547	0
0	3903	18251.27	0
0	3907	18288.437	0
0	3916	18320.23	0
0	3924	18340.039	0
0	3930	18357.454	0
0	3942	18402.711	0
0	3947	18439.598	0
0	3956	18536.119	0
0	3963	18598.914	0
0	3968	18617.851	0
0	3970	18621.862	0
0	3977	18651.359	0
0	3983	18669.688	0
0	3986	18682.69	0
0	3992	18696.871	0
0	3994	18700.162	0
0	4001	18732.213	0
0	4004	18738.61	0
0	4009	18757.967	0
0	4031	18860.704	0
0	4034	18865.641	0
0	4036	18871.09	0
0	4040	18881.729	0
0	4048	18923.858	0
0	4050	18929.16	0
0	4059	18975.677	0
0	4065	19017.356	0
0	4073	19040.65	0
0	4076	19049.013	0
0	4087	19129.53	0
0	4090	19144.424	0
0	4094	19168.687	0
0	4103	19200.73	0
0	4109	19222.273	7.211
0	4115	19233.983	7.042
0	4126	19272.051	39.179
0	4132	19302.649	36.728
0	4135	19314.195	43.011
0	4139	19317.509	24.395
0	4144	19324.906	7.641
0	4163	19409.732	0
0	4166	19422.027	0
0	4175	19446.752	0
0	4183	19459.828	0
0	4186	19473.353	0
0	4188	19479.898	0
0	4192	19485.088	0
0	4195	19492.578	0
0	4214	19578.614	0
0	4216	19579.128	0
0	4222	19596.392	0
0	4225	19604.059	0
0	4234	19645.929	0
0	4237	19654.387	0
0	4240	19671.02	0
0	4248	19691.858	7.189
0	4261	19761.337	0
0	4263	19765.027	0
0	4267	19795.97	0
0	4286	19887.446	0
0	4289	19892.848	0
0	4292	19908.154	0
0	4294	19915.114	0
0	4299	19924.874	0
0	4312	19992.274	29.582
0	4314	20007.45	24.231
0	4322	20045.413	9.398
0	4343	20160.311	0
0	4346	20187.016	0
0	4350	20196.994	0
0	4355	20225.699	0
0	4361	20243.349	0
0	4376	20378.966	0
0	4381	20400.908	0
0	4388	20459.251	0
0	4391	20462.614	0
0	4393	20466.399	0
0	4395	20466.462	0
0	4399	20474.071	0
0	4416	20565.475	0
0	4419	20579.244	0
0	4426	20592.23	0
0	4438	20641.095	0
0	4448	20685.207	0
0	4456	20702.626	0
0	4459	20708.968	0
0	4470	20764.72	0
0	4473	20784.403	0
0	4475	20784.531	0
0	4482	20803.4	0
0	4485	20812.609	0
0	4499	20865.785	0
0	4503	20883.373	0
0	4512	20931.118	0
0	4515	20938.068	0
0	4519	20955.122	0
0	4522	20964.625	0
0	4527	20984.487	0
0	4529	20996.879	0
0	4532	20999.217	0
0	4541	21017.232	0
0	4551	21058.148	0
0	4557	21065.596	0
0	4564	21106.228	0
0	4573	21162.646	0
0	4589	21249.788	0
0	4594	21260.066	0
0	4604	21327.293	0
0	4606	21327.747	0
0	4612	21339.487	0
0	4621	21402.881	0
0	4628	21442.541	0
0	4642	21599.239	0
0	4647	21620.105	0
0	4651	21653.806	0
0	4658	21683.585	0
0	4665	21716.377	0
0	4671	21749.462	0
0	4683	21835.399	0
0	4689	21904.093	0
0	4692	21933.199	0
0	4698	21951.327	0
0	4703	21974.426	0
0	4707	21999.307	0
0	4709	22007.367	0
0	4711	22008.199	0
0	4724	22032.184	0
0	4734	22086.414	0
0	4737	22089.692	0
0	4740	22103.743	0
0	4749	22136.377	0
0	4754	22148.654	0
0	4763	22197.188	0
0	4770	22206.988	0
0	4772	22208.672	0
0	4774	22210.849	0
0	4780	22229.318	0
0	4784	22242.706	4.045
0	4794	22274.217	0
0	4801	22286.618	0
0	4805	22298.176	0
0	4817	22363.502	0
0	4822	22370.558	0
0	4828	22395.15	0
0	4831	22403.852	0
0	4838	22426.416	0.301
0	4846	22470.07	0
0	4852	22476.129	4.763
0	4857	22495.697	3.457
0	4869	22562.125	42.611
0	4871	22565.572	3.733
0	4883	22595.89	0
0	4896	22664.301	0
0	4905	22738.38	0
0	4910	22780.516	0
0	4913	22789	0
0	4918	22810.67	0
0	4924	22825.267	0
0	4928	22835.122	0
0	4942	22867.281	0
0	4951	22915.719	0
0	4953	22919.334	0
0	4960	22947.695	0
0	4969	22992.493	0
0	4974	23046.618	0
0	4981	23063.528	0
0	4983	23066.013	0
0	4988	23095.435	0
0	4994	23119.686	0
0	5000	23150.738	0
0	5004	23164.998	0
0	5010	23188.609	0
0	5014	23194.345	0
0	5031	23264.683	0
0	5035	23296.181	0
0	5038	23297.036	0
0	5044	23314.549	0
0	5046	23322.141	0
0	5066	23476.091	0
0	5071	23528.839	0
0	5076	23541.841	0
0	5093	23643.862	0
0	5098	23647.95	0
0	5101	23659.536	0
0	5115	23792.062	0
0	5120	23860.958	0
0	5124	23882.585	0
0	5126	23884.368	0
0	5128	23888.012	0
0	5133	23899.019	0
0	5142	23923.941	0
0	5152	23966.417	0
0	5162	24021.613	0
0	5165	24026.796	0
0	5167	24030.549	0
0	5171	24046.887	0
0	5190	24144.278	0
0	5194	24178.917	0
0	5198	24198.889	0
0	5202	24226.052	0
0	5208	24239.158	0
0	5214	24256.947	0
0	5221	24280.555	0
0	5228	24308.307	0
0	5236	24331.076	0
0	5248	24387.558	0
0	5253	24411.906	0
0	5260	24434.496	0
0	5264	24452.568	0
0	5272	24508.483	0
0	5277	24532.474	0
0	5282	24541.101	0
0	5285	24554.064	0
0	5304	24692.945	0
0	5309	24728.436	0
0	5316	24763.567	0
0	5322	24775.095	0
0	5333	24846.791	0
0	5340	24948.748	0
0	5342	24950.722	0
0	5347	24967.706	0
0	5352	24987.622	0
0	5355	25001.382	0
0	5358	25011.825	0
0	5372	25064.725	0
0	5375	25067.336	0
0	5379	25082.315	0
0	5383	25088.871	0
0	5392	25120.66	0
0	5398	25138.352	0
0	5407	25179.049	0
0	5418	25227.377	0
0	5423	25265.94	0
0	5428	25282.098	0
0	5441	25389.803	0
0	5444	25401.002	0
0	5450	25477.136	0
0	5455	25498.126	0
0	5459	25508.184	0
0	5462	25521.056	0
0	5470	25552.296	0
0	5491	25678.378	0
0	5495	25684.936	0
0	5499	25720.897	0
0	5504	25745.862	0
0	5510	25774.967	0
0	5518	25806.167	0
0	5522	25821.624	0
0	5525	25836.599	0
0	5530	25862.921	0
0	5546	25980.112	0
0	5549	25988.336	0
0	5557	26026.32	0
0	5561	26036.337	0
0	5574	26121.406	0
0	5579	26136.404	0
0	5587	26177.331	0
0	5596	26223.522	0
0	5599	26226.322	0
0	5602	26241.018	0
0	5609	26332.121	0
0	5619	26359.341	0
0	5626	26419.469	0
0	5631	26450.921	0
0	5638	26478.961	0
0	5648	26527.597	0
0	5657	26632.892	0
0	5664	26669.124	0
0	5671	26720.856	0
0	5673	26722.239	0
0	5681	26750.505	0
0	5690	26784.011	0
0	5692	26787.23	0
0	5701	26834.879	0
0	5704	26863.45	0
0	5713	26895.109	0
0	5721	26961.339	0
0	5724	26980.866	0
0	5726	26987.632	0
0	5730	26995.602	0
0	5732	26996.201	0
0	5742	27023.078	0
0	5762	27095.953	0
0	5765	27106.966	0
0	5769	27121.214	0
0	5777	27162.938	0
0	5781	27200.995	0
0	5787	27216.422	0
0	5807	27373.056	0
0	5810	27397.536	0
0	5816	27460.079	0
0	5823	27530.125	0
0	5827	27543.94	0
0	5829	27548.581	0
0	5834	27565.374	0
0	5843	27604.963	0
0	5849	27632.751	0
0	5854	27661.846	0
0	5870	27728.117	0
0	5875	27734.21	0
0	5883	27793.308	0
0	5886	27795.849	0
0	5889	27822.116	0
0	5896	27878.201	0
0	5898	27880.081	0
0	5900	27886.466	0
0	5913	27954.49	0
0	5917	27963.854	0
0	5927	28022.343	0
0	5942	28125.139	0
0	5944	28128.721	0
0	5952	28162.387	0
0	5956	28190.517	0
0	5962	28205.137	0
0	5964	28210.34	0
0	5972	28269.052	0
0	5981	28302.671	0
0	5983	28306.591	0
0	5996	28342.797	0
0	6000	28364.785	0
0	6004	28376.315	0
0	6010	28414.44	0
0	6016	28456.416	0
0	6018	28456.902	0
0	6023	28478.939	0
0	6031	28499.655	0
0	6038	28517.794	0
0	6040	28518.451	0
0	6052	28560.096	0
0	6058	28577.168	0
0	6062	28590.21	0
0	6067	28594.013	0
0	6072	28608.898	0
0	6076	28615.778	0.934
0	6082	28620.862	4.796
0	6099	28669.101	39.434
0	6102	28671.695	35.125
0	6106	28680.412	29.399
0	6109	28691.211	38.624
0	6119	28721.39	0
0	6121	28722.307	0
0	6126	28725.242	0
0	6136	28772.11	16.085
0	6142	28775.036	0.591
0	6156	28826.432	0
0	6163	28866.835	0
0	6167	28907.051	0
0	6176	28949.188	0
0	6179	28962.189	0
0	6188	28996.235	0
0	6192	29014.629	0
0	6201	29052.188	0
0	6209	29068.586	0
0	6214	29090.684	0
0	6220	29116.789	0
0	6226	29134.627	0
0	6231	29147.105	0
0	6233	29150.808	0
0	6237	29157.256	0
0	6253	29223.354	0
0	6256	29236.926	0
0	6262	29268.673	0
0	6276	29331.447	0
0	6282	29344.053	0
0	6285	29361.603	0
0	6292	29392.033	0
0	6305	29450.572	0
0	6309	29466.729	0
0	6317	29535.782	0
0	6322	29555.464	0
0	6325	29563.6	0
0	6334	29581.492	0
0	6340	29602.135	0
0	6346	29614.87	0
0	6350	29632.988	0
0	6355	29648.546	0
0	6361	29670.455	0
0	6368	29699.742	0
0	6377	29731.797	0
0	6393	29818.177	0
0	6395	29818.69	0
0	6400	29828.45	0
0	6406	29850.5	0
0	6412	29858.705	0
0	6416	29874.258	0
0	6425	29926.811	0
0	6431	29946.615	0
0	6439	29976.995	0
0	6443	29993.983	0
0	6448	30008.584	0
0	6457	30039.21	0
0	6462	30051.395	0
0	6468	30058.308	0
0	6472	30068.61	0
0	6489	30194.77	0
0	6494	30213.443	0
0	6497	30223.222	0
0	6499	30225.027	0
0	6505	30249.251	0
0	6508	30260.569	0
0	6519	30312.834	0
0	6526	30348.058	0
0	6534	30388.63	0
0	6536	30388.755	0
0	6538	30390.935	0
0	6541	30401.417	0
0	6561	30457.087	0
0	6564	30467.315	0
0	6569	30499.374	0
0	6575	30524.259	0
0	6577	30524.554	0
0	6579	30525.655	0
0	6583	30533.167	0
0	6593	30563.902	19.225
0	6598	30568.138	3.316
0	6611	30590.295	0
0	6620	30621.787	0
0	6626	30638.279	0
0	6632	30657.74	0
0	6640	30672.994	0
0	6642	30675.127	0
0	6645	30677.426	0
0	6661	30757.105	0
0	6663	30757.442	0
0	6672	30785.815	0
0	6678	30800.65	0
0	6683	30831.787	0
0	6694	30857.005	0
0	6699	30896.238	0
0	6703	30914.029	0
0	6707	30934.133	0
0	6716	30965.056	0
0	6729	31013.07	0
0	6733	31030.608	0
0	6743	31083.476	0
0	6746	31097.806	0
0	6756	31143.781	0
0	6758	31145.166	0
0	6762	31160.415	0
0	6764	31166.04	0
0	6787	31286.545	0
0	6792	31319.406	0
0	6801	31406.929	0
0	6806	31489.48	0
0	6809	31497.541	0
0	6812	31507.27	0
0	6817	31512.112	0
0	6819	31512.123	0
0	6827	31534.827	0
0	6837	31568.785	0
0	6841	31584.587	0
0	6847	31595.982	0
0	6859	31665.718	0
0	6861	31667.934	0
0	6866	31688.285	0
0	6870	31693.175	0
0	6876	31716.877	0
0	6878	31716.881	0
0	6887	31758.348	0
0	6896	31771.561	0
0	6899	31792.209	0
0	6904	31799.757	6.191
0	6915	31822.119	13.374
0	6920	31826.523	15.575
0	6928	31843.421	20.193
0	6930	31844.511	15.336
0	6943	31880.232	43.631
0	6947	31885.715	34.242
0	6949	31894.432	33.631
0	6977	32059.682	0
0	6980	32069.821	0
0	6983	32084.601	0
0	7000	32228.462	0
0	7004	32274.971	0
0	7006	32275.962	0
0	7015	32322.386	0
0	7017	32325.856	0
0	7025	32359.242	0
0	7029	32369.844	0
0	7034	32387.077	0
0	7038	32395.853	0
0	7052	32566.101	0
0	7054	32574.756	0
0	7065	32634.099	0
0	7074	32694.969	0
0	7078	32700.379	0
0	7081	32716.317	0
0	7083	32722.466	0
0	7094	32785.521	0
0	7099	32811.871	0
0	7119	32949.972	0
0	7122	32957.476	0
0	7129	33035.283	0
0	7132	33055.992	0
0	7137	33071.835	0
0	7139	33082.207	0
0	7142	33091.635	0
0	7157	33145.508	0
0	7162	33167.316	0
0	7171	33183.484	0
0	7181	33260.032	0
0	7185	33294.182	0
0	7187	33295.879	0
0	7200	33350.862	0
0	7204	33360.14	0
0	7210	33390.26	0
0	7218	33416.991	0
0	7228	33472.463	0
0	7234	33490.748	0
0	7240	33507.881	0
0	7250	33572.428	0
0	7253	33575.807	0
0	7258	33603.484	0
0	7261	33605.711	0
0	7266	33629.915	0
0	7275	33672.233	0
0	7288	33767.225	0
0	7291	33772.757	0
0	7303	33951.06	0
0	7307	33970.104	0
0	7312	34010.719	0
0	7321	34054.429	0
0	7326	34078.934	0
0	7331	34099.998	0
0	7337	34135.947	0
0	7339	34138.345	0
0	7348	34176.464	0
0	7351	34182.394	0
0	7356	34193.743	0
0	7365	34220.047	0
0	7375	34258.25	0
0	7379	34263.655	0
0	7383	34273.218	0
0	7387	34285.502	0
0	7396	34327.931	0
0	7418	34392.162	0
0	7421	34406.772	0
0	7423	34410.713	0
0	7430	34431.908	0
0	7441	34469.102	0
0	7444	34484.674	0
0	7450	34535.216	0
0	7456	34562.561	0
0	7460	34581.463	0
0	7466	34616.219	0
0	7472	34677.48	0
0	7480	34746.352	0
0	7495	34888.478	0
0	7498	34895.966	0
0	7508	34979.763	0
0	7518	35055.081	0
0	7520	35055.608	0
0	7529	35142.212	0
0	7532	35145.022	0
0	7538	35194.981	0
0	7542	35223.385	0
0	7550	35243.23	0
0	7562	35295.118	0
0	7569	35347.895	0
0	7571	35352.402	0
0	7575	35367.129	0
0	7585	35451.303	0
0	7598	35505.904	0
0	7604	35522.429	0
0	7609	35557.224	0
0	7614	35601.129	0
0	7621	35658.625	0
0	7626	35677.685	0
0	7631	35686.446	0
0	7638	35723.975	0
0	7640	35725.425	0
0	7651	35778.277	0
0	7653	35778.318	0
0	7655	35781.715	0
0	7661	35795.246	0
0	7667	35805.81	0
0	7676	35826.236	0
0	7678	35826.469	0
0	7682	35834.606	0
0	7689	35855.992	0
0	7698	35877.137	0
0	7709	35897.668	0
0	7717	35935.66	0
0	7721	35946.164	0
0	7726	35966.097	0
0	7730	35969.848	0
0	7738	35988.727	0
0	7741	35995.704	0
0	7747	36003.611	0
0	7749	36003.713	0
0	7756	36014.326	0
0	7761	36024.393	0
0	7768	36043.914	9.903
0	7781	36090.517	0
0	7786	36101.375	0
0	7795	36133.908	0
0	7799	36143.996	0
0	7820	36276.738	0
0	7832	36374.674	0
0	7835	36379.164	0
0	7841	36447.582	0
0	7844	36461.896	0
0	7848	36481.429	0
0	7857	36542.228	0
0	7860	36548.673	0
0	7865	36566.553	0
0	7879	36617.906	0
0	7888	36718.85	0
0	7892	36751.046	0
0	7894	36752.816	0
0	7899	36779.802	0
0	7903	36787.624	0
0	7911	36825.674	0
0	7922	36919.435	0
0	7932	37032.949	0
0	7934	37033.184	0
0	7937	37042.564	0
0	7955	37135.353	0
0	7959	37155.454	0
0	7961	37157.013	0
0	7976	37234.357	0
0	7979	37242.718	0
0	7987	37284.627	0
0	7994	37339.835	0
0	8001	37381.073	0
0	8009	37439.703	0
0	8015	37454.24	0
0	8019	37478.504	0
0	8021	37483.692	0
0	8029	37502.458	0
0	8032	37513.796	0
0	8038	37539.379	0
0	8048	37587.168	0
0	8055	37646.989	0
0	8064	37702.9	0
0	8073	37744.965	0
0	8076	37757.104	0
0	8080	37788.022	0
0	8083	37796.15	0
0	8089	37818.669	0
0	8100	37893.063	0
0	8102	37894.169	0
0	8105	37896.133	0
0	8110	37924.505	0
0	8120	37952.18	0
0	8127	37965.914	0
0	8138	38021.663	0
0	8143	38033.624	0
0	8148	38063.509	0
0	8156	38122.797	0
0	8158	38122.912	0
0	8166	38150.299	0
0	8177	38219.364	0
0	8187	38241.939	0
0	8193	38261.608	0
0	8199	38277.929	0
0	8204	38296.679	0
0	8208	38317.491	0
0	8212	38321.217	0
0	8214	38326.312	0
0	8236	38402.473	0
0	8239	38406.469	0
0	8241	38409.252	0
0	8245	38417.428	0
0	8248	38425.877	0
0	8269	38513.592	0
0	8273	38540.934	0
0	8277	38553.16	0
0	8280	38562.671	0
0	8286	38589.808	0
0	8300	38643.211	0
0	8313	38750.621	0
0	8317	38767.365	0
0	8319	38768.037	0
0	8323	38776.384	0
0	8331	38824.665	0
0	8336	38863.708	0
0	8341	38895.879	0
0	8344	38898.852	0
0	8351	38911.084	0
0	8361	38953.365	0
0	8367	38991.148	0
0	8375	39040.774	0
0	8384	39098.007	0
0	8398	39311.981	0
0	8401	39322.197	0
0	8403	39325.422	0
0	8407	39343.324	0
0	8411	39353.69	0
0	8417	39374.411	0
0	8425	39394.085	0
0	8429	39403.815	0
0	8442	39458.223	0
0	8445	39460.779	0
0	8455	39503.75	0
0	8466	39562.85	0
0	8474	39621.587	0
0	8485	39703.17	0
0	8488	39705.429	0
0	8492	39733.848	0
0	8499	39748.912	0
0	8502	39757.349	0
0	8513	39816.522	0
0	8518	39827.317	0
0	8526	39862.605	0
0	8529	39868.56	0
0	8533	39875.774	0
0	8541	39906.041	0
0	8551	39946.709	0
0	8553	39954.238	0
0	8560	39972.945	0
0	8566	40009.045	0
0	8578	40101.001	0
0	8581	40112.074	0
0	8593	40218.973	0
0	8595	40223.736	0
0	8603	40244.087	0
0	8608	40261.316	0
0	8614	40270.395	0
0	8620	40283.263	0
0	8627	40332.055	0
0	8632	40368.628	0
0	8641	40398.749	0
0	8643	40401.075	0
0	8647	40411.098	0
0	8661	40495.15	0
0	8669	40524.324	0
0	8677	40561.399	0
0	8682	40583.295	0
0	8688	40657.408	0
0	8690	40659.229	0
0	8694	40662.807	0
0	8697	40666.482	0
0	8701	40669.605	0
0	8705	40683.389	0
0	8710	40687.054	0
0	8732	40773.773	0
0	8738	40830.537	0
0	8743	40853.618	0
0	8751	40897.065	0
0	8753	40902.983	0
0	8761	40942.883	0
0	8769	40967.524	0
0	8784	41061.988	0
0	8791	41127.502	0
0	8796	41155.475	0
0	8800	41163.257	0
0	8803	41165.768	0
0	8810	41201.217	0
0	8822	41235.022	0
0	8825	41236.482	0
0	8828	41238.649	0
0	8838	41311.695	0
0	8841	41322.773	0
0	8845	41330.653	0
0	8855	41356.3	0
0	8868	41464.126	0
0	8872	41510.954	0
0	8881	41554.86	0
0	8889	41649.252	0
0	8896	41700.068	0
0	8901	41709.44	0
0	8906	41726.878	0
0	8910	41734.77	0
0	8912	41743.086	0
0	8916	41754.35	0
0	8923	41774.852	0
0	8938	41856.624	0
0	8941	41859.449	0
0	8943	41859.718	0
0	8945	41861.705	0
0	8954	41891.375	0
0	8962	41909.054	0
0	8968	41937.083	0
0	8973	41949.076	0
0	8979	41985.358	0
0	8991	42017.584	0
0	8995	42025.507	0
0	8997	42030.022	0
0	9012	42125.253	0
0	9015	42128.035	0
0	9020	42154.526	0
0	9030	42181.273	0
0	9032	42182.459	0
0	9044	42242.97	0
0	9051	42328.418	0
0	9054	42333.149	0
0	9059	42342.301	0
0	9066	42360.438	0
0	9070	42383.967	0
0	9073	42387.407	0
0	9085	42421.301	0
0	9090	42446.372	0
0	9098	42461.315	0
0	9117	42548.188	0
0	9120	42561.409	0
0	9132	42716.477	0
0	9138	42791.576	0
0	9140	42794.015	0
0	9143	42800.114	0
0	9153	42857.515	0
0	9155	42859.222	0
0	9158	42865.898	0
0	9170	42959.176	0
0	9181	43012.812	0
0	9189	43086.994	0
0	9204	43163.175	0
0	9207	43170.593	0
1	2	0	0
1	6	35.768	0
1	9	45.88	0
1	13	62.663	0
1	16	70.382	0
1	21	94.425	0
1	27	132.557	0
1	34	177.985	0
1	44	212.624	0
1	50	238.627	0
1	56	243.15	0
1	60	258.083	0
1	63	270.693	0
1	72	300.304	0
1	76	308.726	0
1	79	310.572	0
1	88	346.171	0
1	97	376.144	0
1	103	393.552	0
1	105	396.175	0
1	112	418.925	0
1	119	441.693	0
1	126	471.88	0
1	133	492.203	0
1	141	532.649	0
1	146	545.931	0
1	149	562.129	0
1	154	573.83	0
1	158	587.303	0
1	163	601.346	1
1	166	609.363	2
1	169	610.543	1
1	172	619.795	2
1	174	621.024	1
1	177	625.188	0
1	188	663.368	0
1	195	680.427	0
1	199	686.158	0
1	208	706.576	0
1	215	723.221	0
1	225	734.451	0
1	229	751.123	0
1	236	818.28	0
1	241	839.185	0
1	245	857.909	0
1	252	887.25	0
1	257	898.06	0
1	265	909.51	0
1	270	925.585	0
1	283	985.952	0
1	290	1005.745	0
1	295	1026.27	0
1	297	1034.222	0
1	302	1056.209	0
1	310	1084.681	0
1	316	1104.35	0
1	328	1152.294	0
1	331	1175.922	0
1	337	1192.966	0
1	339	1193.26	0
1	343	1204.137	0
1	348	1216.639	1
1	351	1233.368	0
1	362	1251.704	0
1	375	1314.197	0
1	379	1347.395	0
1	383	1356.766	0
1	395	1411.196	0
1	401	1444.885	0
1	407	1467.54	0
1	409	1473.325	0
1	412	1475.931	0
1	418	1487.28	0
1	437	1553.802	0
1	441	1579.293	0
1	445	1586.452	0
1	450	1608.526	0
1	465	1673.496	0