version 2
run General-0-20220118-01:25:53-17008
attr configname General
attr datetime 20220118-01:25:53
attr experiment General
attr inifile omnetpp.ini
attr iterationvars ""
attr iterationvarsf ""
attr measurement ""
attr network PolicyA
attr processid 17008
attr repetition 0
attr replication #0
attr resultdir results
attr runnumber 0
attr seedset 0

vector 0 PolicyA.queue "time spent on the queue" ETV
attr interpolationmode none
vector 1 PolicyA.queue "queue size after modification" ETV
attr interpolationmode none
vector 2 PolicyA.queue "client processing order" ETV
attr interpolationmode none
vector 3 PolicyA.queue "processing time with client order" ETV
attr interpolationmode none
vector 4 PolicyA.queue "till processing order" ETV
attr interpolationmode none
vector 5 PolicyA.queue "client total time in the till" ETV
attr interpolationmode none
vector 6 PolicyA.source "number of clients entering the queue per timer interval" ETV
attr interpolationmode none
vector 7 PolicyA.queue "queue size per minute" ETV
attr interpolationmode none
0	2	0	0
0	5	31.835	0
0	10	67.777	0
0	14	104.706	0
0	17	136.194	0
0	24	220.39	9.037
0	30	252.879	0
0	38	299.637	23.737
0	41	322.745	32.719
0	50	378.967	0
0	55	398.311	0
0	61	424.289	0
0	66	491.177	0
0	74	545.212	20.458
0	77	558.371	13.662
0	86	617.044	0
0	91	646.301	25.611
0	99	662.475	0
0	103	680.845	0
0	110	806.852	0
0	116	888.465	0
0	128	1042.274	0
0	132	1106.484	0
0	135	1131.241	0
0	141	1160.64	0
0	150	1206.078	0
0	154	1246.935	0
0	162	1316.374	63.25
0	166	1367.964	84.007
0	173	1399.734	0
0	176	1404.212	0
0	186	1459.048	29.168
0	189	1466.664	24.493
0	197	1501.701	0
0	201	1511.463	0
0	212	1560.021	42.747
0	219	1582.41	64.377
0	226	1628.714	95.01
0	229	1642.506	70.347
0	233	1667.305	85.088
0	237	1693.513	72.914
0	246	1768.133	54.377
0	248	1770.168	18.432
0	262	1844.79	0
0	264	1847.275	0
0	272	1987.284	0
0	276	2031.708	0
0	281	2044.1	2.944
0	290	2058.892	0
0	293	2064.413	0
0	300	2119.975	0
0	305	2153.752	0
0	310	2157.38	2.061
0	316	2178.412	0
0	328	2356.592	0
0	331	2365.964	0
0	340	2406.285	0
0	346	2448.635	0
0	349	2460.318	0
0	358	2542.36	60.639
0	365	2569.072	62.233
0	372	2581.202	35.288
0	380	2639.509	86.67
0	383	2658.305	88.966
0	386	2670.322	96.305
0	394	2708.341	89.397
0	397	2742.571	63.362
0	406	2798.697	0
0	409	2802.783	0
0	416	2857.938	16.151
0	421	2886.58	0
0	430	3029.524	0
0	440	3103.67	48.853
0	456	3207.979	124.659
0	459	3236.378	150.765
0	463	3265.188	142.436
0	468	3337.191	190.441
0	470	3337.307	189.749
0	476	3355.864	206.707
0	486	3428.596	256.124
0	491	3460.293	274.525
0	495	3472.541	131.11
0	497	3474.097	106.44
0	504	3536.952	164.239
0	506	3544.338	86.656
0	520	3623.214	65.376
0	522	3629.813	38.531
0	526	3637.024	17.292
0	534	3678.012	28.65
0	542	3748.785	0
0	550	3854.755	0
0	553	3870.097	0
0	555	3870.473	0
0	564	3914.507	0
0	570	3964.904	0
0	582	4046.859	68.289
0	591	4066.74	75.869
0	596	4107.446	108.481
0	601	4135.373	116.12
0	607	4152.119	100.674
0	610	4165.854	113.597
0	620	4220.581	161.114
0	622	4222.699	92.602
0	628	4250.906	114.475
0	633	4273.908	92.172
0	637	4301.484	71.088
0	644	4361.402	0
0	650	4397.266	0
0	655	4431.235	0
0	664	4471.981	0
0	670	4594.072	0
0	673	4617.777	0
0	680	4678.922	37.29
0	688	4795.352	0
0	695	4809.473	0
0	702	4867.746	0
0	705	4887.947	0
0	714	4932.958	0
0	718	4967.779	0
0	726	5053.172	0
0	732	5100.347	0
0	736	5152.023	0
0	744	5220.351	40.496
0	749	5225.171	14.841
0	758	5294.022	73.21
0	764	5328.929	66.805
0	766	5329.698	45.518
0	778	5407.839	86.363
0	780	5414.768	67.528
0	796	5508.435	135.79
0	800	5552.555	136.737
0	803	5566.271	136.866
0	813	5590.195	147.086
0	816	5601.093	138.639
0	824	5654.215	169.363
0	831	5660.843	91.693
0	833	5667.825	94.333
0	846	5748.578	160.917
0	849	5763.205	141.788
0	853	5788.517	131.351
0	857	5809.422	150.888
0	868	5859.22	158.326
0	870	5865.931	149.552
0	874	5892.657	166.275
0	890	6015.443	198.316
0	896	6113.21	291.99
0	898	6114.595	270.477
0	906	6145.355	212.24
0	911	6175.491	218.613
0	915	6207.095	245.992
0	920	6244.837	279.539
0	924	6303.436	237.367
0	930	6424.555	308.382
0	933	6441.924	300.412
0	936	6445.188	33.06
0	948	6517.377	67.01
0	951	6537.882	80.213
0	962	6582.95	119.994
0	972	6681.659	143.346
0	974	6685.029	125.516
0	980	6728.196	162.651
0	988	6774.222	187.762
0	993	6789.12	199.793
0	996	6802.266	50.945
0	999	6810.304	37.189
0	1005	6844.781	69.589
0	1015	6874.459	18.756
0	1022	6951.719	85.523
0	1024	6956.246	89.579
0	1032	7019.963	95.384
0	1037	7054.438	77.487
0	1050	7093.242	60.839
0	1058	7138.791	76.943
0	1061	7160.832	96.749
0	1074	7222.632	141.99
0	1080	7339.151	249.583
0	1086	7376.005	278.524
0	1089	7379.614	274.632
0	1094	7399.203	231.084
0	1099	7434.999	256.74
0	1108	7488.196	292.991
0	1115	7517.594	207.007
0	1120	7580.925	221.586
0	1123	7595.665	200.007
0	1125	7598.239	141.348
0	1132	7647.145	188.187
0	1140	7750.727	257.332
0	1142	7759.699	255.437
0	1152	7802.728	103.301
0	1158	7851.782	116.7
0	1172	7918.687	128.018
0	1175	7934.398	91.338
0	1179	7957.925	94.55
0	1183	7978.721	105.796
0	1190	8081.134	198.788
0	1192	8082.177	189.767
0	1196	8111.858	209.574
0	1202	8154.879	137.032
0	1213	8174.2	15.774
0	1216	8187.884	25.892
0	1226	8288.305	123.922
0	1228	8289.246	122.54
0	1232	8291.417	101.915
0	1242	8335.165	130.716
0	1247	8352.941	63.345
0	1251	8385.608	77.035
0	1254	8390.979	43.948
0	1264	8441.601	17.436
0	1272	8519.666	49.999
0	1274	8523.293	8.412
0	1282	8591.231	38.988
0	1288	8643.037	0
0	1296	8720.321	67.504
0	1307	8745.796	68.626
0	1313	8781.888	61.202
0	1320	8841.649	108.739
0	1324	8886.434	147.62
0	1332	8977.32	237.671
0	1340	9034.375	284.312
0	1342	9035.327	228.449
0	1352	9074.355	173.563
0	1358	9121.263	184.971
0	1360	9126.439	119.021
0	1364	9158.046	121.293
0	1372	9191.481	154.726
0	1374	9193.241	74.053
0	1382	9259.241	76.064
0	1390	9316.838	88.099
0	1393	9328.316	53.052
0	1402	9408.259	123.286
0	1410	9480.248	133.088
0	1412	9484.128	126.542
0	1418	9547.714	105.218
0	1424	9585.614	128.061
0	1429	9617.856	34.019
0	1435	9633.571	0
0	1440	9648.024	7.778
0	1446	9662.36	0
0	1458	9727.314	46.207
0	1463	9740.913	50.129
0	1467	9773.448	69.655
0	1476	9825.452	86.308
0	1483	9852.502	47.435
0	1496	9966.144	156.076
0	1500	9973.967	134.758
0	1504	9987.115	134.938
0	1510	10034.513	176.67
0	1512	10040.354	174.821
0	1518	10050.586	136.293
0	1520	10050.724	111.55
0	1525	10060.42	87.911
0	1535	10092.355	46.435
0	1539	10095.225	42.094
0	1546	10138.431	58.518
0	1549	10149.8	18.67
0	1560	10202.866	16.497
0	1568	10311.853	115.676
0	1571	10330.506	78.996
0	1580	10363.375	59.24
0	1583	10381.051	41.787
0	1587	10414.334	73.202
0	1596	10471.872	0
0	1599	10476.099	0
0	1607	10509.819	31.115
0	1615	10527.505	48.138
0	1622	10615.141	103.328
0	1624	10615.972	103.788
0	1638	10776.493	219.973
0	1641	10784.597	61.838
0	1643	10785.573	54.796
0	1656	10830.326	96.905
0	1664	10903.756	141.605
0	1667	10924.235	135.492
0	1672	10964.489	141.003
0	1675	10995.772	110.326
0	1682	11028.848	133.545
0	1686	11129.442	103.782
0	1691	11144.948	0
0	1700	11282.824	87.587
0	1706	11321.122	86.066
0	1712	11381.597	97.226
0	1717	11402.261	34.94
0	1726	11441.778	0
0	1732	11480.258	0
0	1734	11480.791	0
0	1744	11627.177	0
0	1747	11633.59	0
0	1754	11701.112	6.879
0	1759	11720.265	0
0	1766	11776.292	0
0	1772	11818.203	1.104
0	1777	11840.304	4.813
0	1783	11861.392	4.762
0	1790	11929.343	66.824
0	1794	11931.584	0
0	1800	11952.093	0
0	1807	11984.63	3.895
0	1820	12138.64	0
0	1824	12217.916	0
0	1836	12362.274	0
0	1840	12491.873	0
0	1844	12586.689	0
0	1854	12646.186	0
0	1857	12662.393	0
0	1861	12682.793	0
0	1869	12697.165	0
0	1874	12756.87	0
0	1878	12762.555	0
0	1884	12778.295	0
0	1886	12780.491	0
0	1898	12902.685	0
0	1904	12961.573	0
0	1906	12967.93	0
0	1920	13053.705	0
0	1922	13057.46	0
0	1928	13102.715	0
0	1931	13113.976	0
0	1936	13136.612	0
0	1950	13254.938	96.5
0	1953	13276.229	47.006
0	1959	13304.168	55.886
0	1967	13337.374	37.154
0	1970	13342.905	30.079
0	1972	13346.713	22.051
0	1979	13360.515	0
0	1990	13426.309	39.907
0	1993	13431.218	20.278
0	1999	13464.121	23.438
0	2005	13486.673	0
0	2016	13563.267	0
0	2019	13582.384	0
0	2030	13652.533	0
0	2036	13714.683	0
0	2039	13717.024	0
0	2046	13760.181	0
0	2054	13820.51	0
0	2058	13880.607	0
0	2061	13892.62	0
0	2069	13925.785	25.307
0	2072	13929.47	10.268
0	2078	13954.632	0
0	2087	13988.958	21.583
0	2096	14028.064	42.153
0	2098	14033.804	39.114
0	2104	14076.049	56.722
0	2116	14211.292	88.267
0	2119	14221.201	94.973
0	2123	14252.448	100.863
0	2130	14291.698	110.851
0	2133	14300.26	33.689
0	2138	14313.067	12.029
0	2152	14429.23	0
0	2154	14430.67	0
0	2164	14491.904	0
0	2167	14520.439	0
0	2170	14527.407	0
0	2176	14545.654	12.036
0	2186	14588.605	9.235
0	2191	14616.183	31.295
0	2201	14641.142	40.492
0	2210	14693.88	73.282
0	2213	14715.682	88.724
0	2217	14740.4	106.474
0	2226	14785.393	143.18
0	2228	14785.924	138.168
0	2231	14792.868	51.382
0	2240	14909.434	143.529
0	2248	14956.152	104.75
0	2254	15020.062	84.795
0	2260	15067.624	111.989
0	2262	15071.501	22.111
0	2268	15096.241	0
0	2276	15144.35	0
0	2286	15200.901	0
0	2292	15241.332	0
0	2295	15252.311	0
0	2304	15310.573	0
0	2310	15374.235	0
0	2320	15502.165	0
0	2323	15526.675	0
0	2327	15554.676	0
0	2336	15677.599	0
0	2339	15702.041	0
0	2341	15706.143	0
0	2350	15827.501	0
0	2362	15896.264	0
0	2366	15992.071	0
0	2374	16059.68	0
0	2377	16066.626	0
0	2379	16070.595	0
0	2386	16110.246	0
0	2392	16178.859	66.022
0	2400	16233.002	9.741
0	2405	16244.288	9.054
0	2416	16303.821	16.554
0	2420	16358.957	70.335
0	2428	16460.819	157.529
0	2433	16481.646	50.606
0	2444	16527.547	73.036
0	2449	16555.862	83.705
0	2451	16556.611	64.566
0	2460	16609.602	116.898
0	2466	16660.789	137.726
0	2469	16663.153	119.573
0	2474	16715.634	141.315
0	2479	16737.536	117.606
0	2485	16762.273	26.106
0	2495	16795.642	35.258
0	2501	16817.276	41.069
0	2520	16940.48	160.653
0	2522	16941.277	150.621
0	2532	16960.925	132.144
0	2540	16998.233	168.107
0	2547	17018.272	187.517
0	2556	17067.72	208.179
0	2561	17074.704	173.189
0	2564	17094.358	190.023
0	2570	17135.368	199.571
0	2574	17174.058	226.65
0	2577	17202.44	253.712
0	2586	17248.273	289.547
0	2589	17265.732	272.292
0	2598	17395.173	396.114
0	2604	17454.99	455.447
0	2608	17501.12	474.563
0	2612	17504.027	472.561
0	2618	17529.051	459.041
0	2624	17574.009	357.617
0	2631	17595.063	371.556
0	2635	17629.868	335.124
0	2646	17706.945	385.243
0	2650	17770.939	267.324
0	2653	17779.919	261.302
0	2659	17808.746	228.971
0	2663	17826.297	235.47
0	2667	17856.202	219.348
0	2675	17887.709	239.557
0	2679	17919.196	230.847
0	2683	17942.046	149.071
0	2689	17968.093	98.168
0	2698	18041.117	157.658
0	2701	18044.095	91.471
0	2706	18080.122	106.062
0	2712	18122.75	9.864
0	2717	18133.155	0
0	2724	18186.836	0
0	2729	18203.976	0
0	2740	18314.742	0
0	2750	18484.063	0
0	2756	18622.977	0
0	2762	18717.11	0
0	2765	18731.181	0
0	2767	18736.343	0
0	2780	18929.532	0
0	2783	18934.01	0
0	2786	18960.905	0
0	2798	19081.504	0
0	2802	19128.321	0
0	2804	19130.726	0
0	2816	19230.151	0
0	2822	19315.539	0
0	2825	19328.261	0
0	2827	19333.961	0
0	2834	19361.115	8.093
0	2842	19413.746	41.969
0	2849	19427.035	0
0	2858	19490.529	0
0	2861	19514.391	0
0	2865	19528.444	0
0	2876	19615.293	0
0	2879	19626.152	0
0	2886	19679.788	0
0	2896	19794.085	0
0	2904	19834.29	0
0	2908	19915.073	0
0	2918	20027.749	0
0	2924	20083.323	0
0	2928	20131.425	0
0	2936	20269.063	0
0	2942	20476.468	0
0	2947	20500.514	0
0	2954	20549.901	0
0	2957	20563.758	0
0	2962	20608.336	0
0	2967	20629.952	0
0	2976	20677.591	0
0	2982	20714.657	0
0	2987	20733.96	0
0	2996	20862.973	0
0	3004	21000.398	0
0	3007	21032.062	0
0	3018	21187.698	0
0	3022	21223.58	0
0	3030	21314.408	0
0	3033	21335.292	0
0	3038	21369.984	0
0	3041	21382.663	0
0	3044	21395.417	0
0	3051	21424.537	4.809
0	3058	21466.879	26.604
0	3064	21527.861	0
0	3072	21568.279	25.553
0	3088	21683.842	128.099
0	3094	21753.658	179.24
0	3106	21905.735	301.542
0	3113	21927.203	321.935
0	3116	21932.344	271.529
0	3128	22025.469	348.425
0	3136	22075.539	382.503
0	3139	22089.08	292.879
0	3148	22172.751	369.165
0	3154	22228.081	422.498
0	3159	22241.149	342.865
0	3166	22275.784	365.798
0	3169	22313.035	387.034
0	3175	22322.795	373.161
0	3180	22398.794	444.739
0	3189	22427.992	445.202
0	3192	22435.015	398.327
0	3195	22441.399	385.147
0	3200	22472.479	370.585
0	3214	22532.824	391.975
0	3217	22545.807	315.612
0	3223	22574.424	299.011
0	3232	22613.194	292.671
0	3242	22649.02	243.941
0	3247	22660.87	249.372
0	3250	22684.541	259.753
0	3255	22702.152	199.762
0	3257	22710.116	207.409
0	3266	22765.623	238.252
0	3269	22779.427	251.063
0	3279	22813.33	254.719
0	3283	22831.041	239.766
0	3289	22864.753	269.728
0	3302	22953.695	330.727
0	3304	22961.508	331.868
0	3314	23034.233	403.608
0	3318	23082.702	429.906
0	3322	23131.099	383.651
0	3328	23203.512	409.101
0	3332	23242.064	442.734
0	3335	23262.561	428.802
0	3344	23344.734	463.442
0	3348	23389.712	456.904
0	3350	23389.903	437.397
0	3362	23434.142	481.528
0	3364	23443.134	480.217
0	3372	23488.865	484.274
0	3374	23494.479	346.748
0	3382	23532.496	253.139
0	3387	23552.055	225.005
0	3398	23636.954	242.693
0	3401	23644.148	221.369
0	3412	23748.176	283.564
0	3418	23798.34	271.142
0	3421	23832.558	282.022
0	3425	23852.125	272.234
0	3434	23913.612	286.36
0	3439	23926.25	295.187
0	3446	24071.614	415.829
0	3451	24107.179	441.056
0	3460	24154.513	418.252
0	3464	24216.405	441.092
0	3467	24239.438	376.816
0	3474	24256.354	355.152
0	3478	24268.358	346.427
0	3484	24309.443	229.854
0	3487	24339.12	220.649
0	3493	24354.032	216.481
0	3497	24389.631	149.859
0	3501	24397.537	152.61
0	3505	24427.647	80.003
0	3511	24448.565	0
0	3516	24464.351	0.566
0	3524	24510.108	26.608
0	3529	24541.141	24.548
0	3540	24611.322	0
0	3544	24698.291	0
0	3549	24721.943	0
0	3556	24784.137	51.319
0	3564	24828.203	0
0	3572	24871.487	0
0	3575	24894.699	0
0	3584	24933.989	0
0	3590	24981.679	0
0	3593	24993.048	0
0	3602	25077.359	0
0	3605	25079.832	0
0	3608	25108.992	0
0	3613	25114.463	2.95
0	3626	25206.836	0
0	3634	25298.172	0
0	3640	25342.833	0
0	3645	25372.944	0
0	3649	25402.554	0
0	3653	25418.014	0
0	3658	25431.29	13.152
0	3670	25518.571	82.444
0	3673	25535.97	63.46
0	3675	25536.571	63.853
0	3686	25628.264	0
0	3689	25644.163	0
0	3696	25693.957	35.917
0	3700	25703.661	0
0	3712	25807.648	0
0	3715	25833.624	0
0	3722	25874.144	19.872
0	3727	25894.374	0
0	3734	25982.903	0
0	3739	26013.379	12.126
0	3748	26106.618	0
0	3753	26123.086	0
0	3757	26145.696	0
0	3763	26181.882	0.25
0	3769	26199.142	0
0	3776	26241.945	0
0	3781	26278.982	1.273
0	3788	26346.685	0
0	3796	26390.299	23.363
0	3799	26395.608	27.14
0	3812	26657.807	0
0	3818	26708.927	0
0	3822	26749.525	0
0	3826	26816.602	0
0	3834	26966.168	0
0	3844	27054.384	0
0	3852	27112.236	0
0	3856	27160.162	0
0	3859	27176.511	0
0	3861	27179.936	0
0	3867	27193.901	7.573
0	3878	27244.301	0
0	3885	27266.946	0
0	3888	27279.024	0
0	3893	27308.549	0
0	3900	27367.268	50.81
0	3906	27443.973	0
0	3911	27466.251	17.751
0	3917	27483.526	0
0	3926	27593.775	0
0	3936	27669.17	0
0	3942	27779.02	0
0	3950	27943.017	0
0	3953	27963.437	0
0	3958	28024.172	0
0	3960	28030.57	0
0	3970	28088.496	0
0	3976	28131.269	0
0	3986	28210.507	0
0	3989	28214.6	0
0	3991	28218.383	0
0	3998	28245.931	0
0	4008	28299.856	19.122
0	4011	28311.704	26.908
0	4020	28452.607	0
0	4022	28455.02	0
0	4028	28467.669	0
0	4036	28509.487	16.376
0	4044	28582.744	63.495
0	4047	28591.282	43.63
0	4056	28684.417	0
0	4066	28762.248	0
0	4069	28767.24	0
0	4072	28793.683	0
0	4079	28806.34	0
0	4087	28840.784	23.715
0	4091	28866.172	28.682
0	4097	28882.005	0
0	4106	28959.733	0
0	4112	29000.509	0
0	4115	29020.886	0
0	4124	29063.777	42.002
0	4131	29093.814	49.431
0	4135	29104.95	22.436
0	4140	29132.008	46.589
0	4146	29221.418	96.728
0	4158	29292.761	69.939
0	4161	29306.067	67.578
0	4164	29316.436	47.153
0	4172	29355.016	81.05
0	4175	29362.39	16.758
0	4183	29391.577	25.152
0	4189	29403.952	22.039
0	4195	29431.973	0
0	4201	29459.396	7.013
0	4210	29522.076	39.419
0	4216	29562.588	76.368
0	4218	29564.352	29.542
0	4226	29611.801	36.7
0	4236	29703.007	0
0	4240	29783.754	0
0	4242	29784.939	0
0	4252	29823.713	38.726
0	4256	29897.443	81.834
0	4261	29928.475	2.142
0	4268	29989.981	0
0	4275	30001.586	3.148
0	4284	30067.901	51.909
0	4290	30139.499	122.735
0	4308	30258.478	166.269
0	4323	30291.129	124.916
0	4331	30299.554	114.655
0	4339	30330.028	135.043
0	4343	30364.086	154.41
0	4347	30378.531	165.497
0	4352	30392.313	148.454
0	4356	30402.636	155.21
0	4368	30515.747	255.481
0	4382	30632.852	362.576
0	4387	30641.253	370.628
0	4395	30675.804	400.964
0	4399	30688.113	412.263
0	4406	30763.44	475.272
0	4408	30765.286	470.885
0	4412	30779.994	482.855
0	4415	30795.845	495.992
0	4420	30807.847	497.919
0	4424	30829.509	441.987
0	4436	30880.659	460.327
0	4439	30916.362	409.534
0	4448	31032.718	519.23
0	4454	31092.717	563.079
0	4462	31155.158	616.614
0	4467	31168.905	580.44
0	4475	31200.729	589.993
0	4481	31220.01	579.223
0	4490	31265.992	610.841
0	4492	31271.004	598.656
0	4498	31284.078	550.895
0	4500	31289.578	451.587
0	4516	31354.715	512.704
0	4528	31413.253	551.301
0	4531	31433.548	487.324
0	4535	31447.833	493.046
0	4544	31501.056	446.183
0	4552	31551.787	439.949
0	4558	31603.862	473.887
0	4561	31611.605	453.819
0	4563	31612.011	413.097
0	4576	31786.306	575.669
0	4582	31826.604	583.931
0	4588	31873.894	625.563
0	4592	31910.216	634.48
0	4597	31924.401	602.87
0	4602	31978.214	652.58
0	4605	31988.387	657.759
0	4612	32028.794	678.029
0	4616	32069.021	711.289
0	4619	32074.735	706.388
0	4629	32103.229	732.965
0	4635	32129.525	724.04
0	4641	32156.951	696.517
0	4646	32194.689	696.694
0	4652	32297.95	761.996
0	4664	32381.617	838.205
0	4666	32383.477	793.684
0	4676	32423.998	683.658
0	4680	32486.564	730.302
0	4685	32503.214	718.611
0	4690	32600.268	750.745
0	4693	32614.133	692.206
0	4697	32641.014	612.246
0	4704	32685.109	605.109
0	4714	32801.539	720.201
0	4722	32854.753	754.812
0	4725	32870.128	747.986
0	4728	32892.614	759.088
0	4735	32919.99	632.787
0	4744	32974.831	663.091
0	4756	33045.35	715.479
0	4759	33056.915	703.522
0	4766	33118.327	748.549
0	4770	33161.994	758.285
0	4775	33174.789	686.043
0	4778	33181.303	499.969
0	4781	33196.359	452.239
0	4788	33244.698	455.536
0	4791	33262.467	462.795
0	4795	33285.499	474.591
0	4797	33286.247	444.376
0	4808	33343.756	442.567
0	4812	33430.16	474.062
0	4822	33491.142	521.114
0	4827	33496.891	502.724
0	4829	33504.723	501.928
0	4839	33536.288	506.248
0	4843	33554.05	463.776
0	4847	33579.188	414.538
0	4856	33619.734	307.545
0	4858	33622.417	305.906
0	4862	33629.942	165.191
0	4865	33651.117	183.232
0	4876	33730.162	260.787
0	4882	33803.563	312.076
0	4885	33811.758	299.374
0	4902	33879.67	362.732
0	4908	33950.829	349.823
0	4912	33996.384	285.857
0	4914	34003.617	292.983
0	4926	34089.597	359.073
0	4932	34168.04	330.276
0	4934	34171.592	322.299
0	4942	34217.148	357.687
0	4945	34239.178	378.714
0	4951	34273.105	411.008
0	4954	34282.993	420.596
0	4960	34294.797	391.567
0	4970	34383.136	374.993
0	4972	34387.334	360.237
0	4984	34432.411	356.463
0	4991	34443.224	317.894
0	5002	34492.296	243.51
0	5010	34549.965	264.508
0	5016	34594.894	250.656
0	5019	34608.164	225.047
0	5040	34677.191	269.657
0	5043	34688.285	267.132
0	5047	34714.007	289.298
0	5049	34718.614	283.285
0	5053	34725.049	286.325
0	5057	34734.334	286.058
0	5063	34762.672	298.851
0	5082	34888.289	416.382
0	5088	34940.273	447.731
0	5090	34947.011	399.773
0	5102	35017.936	440.759
0	5109	35043.76	421.247
0	5113	35070.453	441.688
0	5117	35083.351	454.564
0	5120	35099.592	463.446
0	5128	35167.336	528.526
0	5138	35213.385	571.948
0	5143	35219.656	565.94
0	5146	35231.659	560.813
0	5152	35266.396	487.788
0	5157	35290.847	505.397
0	5164	35325.91	533.526
0	5170	35398.52	589.386
0	5175	35425.323	564.221
0	5186	35520.678	654.659
0	5191	35547.503	637.939
0	5197	35562.149	600.523
0	5199	35562.897	560.686
0	5206	35620.968	617.713
0	5209	35643.769	614.404
0	5226	35799.396	767.67
0	5229	35832.671	702.405
0	5235	35864.617	678.074
0	5240	35908.863	721.008
0	5252	35965.778	756.264
0	5262	36007.659	790.549
0	5266	36053.708	766.925
0	5270	36093.527	775.165
0	5279	36128.801	774.891
0	5283	36149.269	704.639
0	5290	36207.259	741.542
0	5293	36226.738	742.316
0	5298	36263.209	730.233
0	5301	36285.138	723.165
0	5309	36300.937	651.013
0	5311	36307.28	657.149
0	5320	36361.835	704.889
0	5328	36410.015	706.973
0	5331	36420.697	716.268
0	5344	36505.254	751.247
0	5352	36584.947	744.355
0	5359	36605.403	690.276
0	5367	36626.384	705.209
0	5372	36669.45	742.811
0	5375	36684.774	740.346
0	5378	36703.486	720.199
0	5384	36756.337	762.107
0	5389	36788.841	691.894
0	5398	36834.775	721.23
0	5406	36900.493	782.455
0	5411	36925.646	770.935
0	5418	36992.661	705.863
0	5422	37039.84	744.066
0	5425	37049.402	712.999
0	5432	37094.726	701.114
0	5436	37157.515	755.695
0	5439	37165.357	733.108
0	5445	37194.347	726.689
0	5452	37200.458	717.576
0	5464	37264.379	772.367
0	5474	37329.396	813.697
0	5477	37346.961	767.599
0	5481	37362.304	770.55
0	5485	37394.801	785.361
0	5496	37515.657	892.049
0	5501	37533.183	756.592
0	5508	37614.363	808.34
0	5515	37635.384	810.497
0	5526	37705.903	869.928
0	5529	37734.896	835.416
0	5533	37766.108	849.732
0	5539	37794.091	833.461
0	5546	37859.185	765.872
0	5558	37946.676	772.983
0	5561	37963.517	766.537
0	5564	37978.337	754.704
0	5568	37995.59	748.162
0	5574	38008.301	753.314
0	5586	38084.829	791.015
0	5589	38108.863	811.492
0	5602	38191.558	866.606
0	5605	38217.673	812.088
0	5609	38240.395	814.282
0	5611	38246.316	805.274
0	5618	38333.052	804.219
0	5624	38385.682	790.243
0	5634	38441.987	821.652
0	5642	38492.122	862.284
0	5644	38496.472	854.339
0	5650	38550.428	905.846
0	5656	38602.828	923.969
0	5662	38649.455	870.287
0	5669	38677.43	787.723
0	5671	38678.792	781.372
0	5677	38713.241	810.894
0	5682	38752.099	842.564
0	5685	38786.015	784.43
0	5687	38787.738	758.638
0	5695	38824.596	791.838
0	5706	38890.01	853.195
0	5711	38907.949	791.485
0	5714	38915.569	765.67
0	5722	38987.394	822.862
0	5729	39002.682	821.387
0	5734	39047.937	687.15
0	5736	39051.603	647.978
0	5744	39110.902	678.14
0	5747	39140.287	680.984
0	5749	39142	680.596
0	5751	39143.734	589.759
0	5762	39198.424	574.302
0	5765	39216.979	541.134
0	5769	39241.125	563.707
0	5772	39246.087	435.727
0	5774	39254.797	403.077
0	5784	39296.666	428.743
0	5794	39361.524	489.398
0	5806	39470.118	562.852
0	5810	39524.877	591.792
0	5820	39596.691	595.009
0	5826	39663.266	553.88
0	5829	39685.775	509.134
0	5846	39780.987	524.696
0	5854	39860.052	554.833
0	5858	39898.836	578.726
0	5863	39925.764	577.627
0	5874	39997.053	628.984
0	5880	40036.528	652.081
0	5883	40048.785	644.439
0	5892	40113.761	646.121
0	5902	40168.67	633.491
0	5905	40184.27	639.272
0	5912	40250.597	690.236
0	5915	40261.176	555.107
0	5928	40310.025	590.209
0	5932	40371.525	643.781
0	5940	40410.999	660.007
0	5942	40416.574	648.626
0	5948	40492.274	715.034
0	5954	40539.08	735.678
0	5957	40558.452	711.309
0	5961	40592.878	689.656
0	5965	40605.607	665.324
0	5969	40627.411	659.751
0	5974	40675.197	702.513
0	5978	40719.297	707.604
0	5982	40758.435	685.307
0	5984	40762.623	662.436
0	5992	40813.013	697.262
0	5995	40825.453	703.909
0	5998	40850.833	714.068
0	6006	40890.293	619.329
0	6010	40967.992	694.024
0	6017	40987.143	710.307
0	6021	41016.071	726.089
0	6027	41033.051	649.92
0	6038	41150.009	759.11
0	6041	41170.749	639.483
0	6043	41173.709	300.002
0	6047	41188.706	213.101
0	6060	41297.302	315.833
0	6062	41302.82	269.865
0	6080	41338.894	270.191
0	6094	41431.303	314.435
0	6101	41442.865	308.087
0	6105	41476.098	258.514
0	6110	41515.806	288.598
0	6116	41561.308	275.099
0	6119	41579.15	271.493
0	6126	41619.191	311.044
0	6128	41620.667	311.217
0	6134	41645.096	320.053
0	6144	41687.842	360.282
0	6166	41845.713	507.721
0	6170	41892.159	506.6
0	6173	41923.617	527.582
0	6184	41972.678	572.532
0	6192	42041.285	636.111
0	6201	42057.115	623.003
0	6203	42057.89	622.116
0	6212	42096.193	548.927
0	6215	42098.303	505.815
0	6224	42156.841	528.407
0	6229	42171.777	525.099
0	6236	42246.123	573.608
0	6239	42267.65	563.568
0	6245	42293.875	555.652
0	6254	42351.447	605.352
0	6257	42358.144	582.683
0	6264	42460.74	680.353
0	6272	42554.829	773.196
0	6278	42613.395	820.554
0	6281	42619.578	816.572
0	6290	42667.386	859.071
0	6292	42670.06	738.861
0	6294	42674.356	712.112
0	6302	42752.049	785.257
0	6305	42770.752	790.398
0	6309	42791.358	747.617
0	6312	42796.627	751.57
0	6315	42803.031	757.127
0	6319	42818.082	724.211
0	6328	42897.477	776.715
0	6340	42985.753	853.819
0	6343	42998.093	830.628
0	6347	43030.005	806.566
0	6353	43065.998	788.04
0	6364	43122.939	806.225
0	6366	43123.826	796.717
0	6380	43219.031	773.244
0	6392	43255.32	734.087
0	6398	43288.414	740.214
0	6401	43304.748	672.957
0	6408	43345.571	703.201
0	6412	43385.865	524.442
0	6414	43387.914	475.66
0	6416	43389.098	452.914
0	6426	43426.008	476.22
0	6428	43431.373	469.843
0	6432	43435.494	372.334
0	6435	43445.777	377.171
0	6440	43464.048	365.596
0	6444	43470.177	369.924
0	6452	43544.428	413.477
0	6455	43565.881	419.695
0	6457	43568.669	398.37
0	6468	43636.26	413.95
0	6471	43661.677	425.089
0	6474	43670.759	433.188
0	6478	43677.713	427.729
0	6486	43721.306	448.829
0	6496	43800.37	485.657
0	6501	43814.199	422.726
0	6506	43827.352	296.662
0	6510	43841.169	241.052
0	6515	43861.065	250.349
0	6522	43895.124	178.336
0	6527	43905.236	155.786
0	6538	43964.312	211.014
0	6541	43988.546	186.424
0	6554	44053.282	229.465
0	6558	44097.236	227.159
0	6562	44135.493	233.471
0	6569	44160.847	255.346
0	6578	44213.173	305.164
0	6590	44296.164	386.058
0	6598	44436.216	432.028
0	6603	44458.319	413.164
0	6605	44459.271	412.889
0	6614	44508.87	462.461
0	6619	44519.522	376.763
0	6621	44523.407	367.601
0	6628	44572.423	408.412
0	6630	44578.198	405.96
0	6636	44582.523	363.243
0	6639	44601.404	377.512
0	6646	44646.359	402.168
0	6658	44785.33	528.843
0	6660	44785.62	381.426
0	6666	44869.098	424.098
0	6671	44906.548	409.104
0	6677	44934.874	416.185
0	6683	44963.77	385.503
0	6692	45003.199	288.071
0	6695	45011.377	294.495
0	6704	45065.182	328.333
0	6716	45188.098	402.976
0	6719	45215.149	326.502
0	6730	45361.651	443.262
0	6738	45396.348	460.467
0	6748	45480.716	483.003
0	6751	45516.754	462.797
0	6755	45536.328	478.145
0	6764	45691.108	617.622
0	6770	45779.645	649.243
0	6773	45793.03	661.94
0	6778	45797.781	617.958
0	6784	45829.899	513.559
0	6786	45832.856	511.502
0	6788	45836.888	483.376
0	6796	45925.697	554.563
0	6803	45954.832	569.662
0	6805	45957.362	559.807
0	6809	45961.887	498.443
0	6813	45972.435	501.847
0	6820	46023.941	482.908
0	6825	46035.247	325.935
0	6827	46040.337	244.921
0	6832	46061.78	127.196
0	6837	46072.472	128.822
0	6850	46118.071	84.073
0	6857	46145.282	70.292
0	6866	46205.117	127.806
0	6870	46260.081	153.239
0	6874	46299.921	191.647
0	6890	46461.735	337.355
0	6892	46467.511	333.901
0	6898	46523.505	322.103
0	6902	46565.433	196.645
0	6906	46673.339	293.295
0	6918	46740.128	355.399
0	6922	46776.438	382.728
0	6930	46815.885	382.315
0	6933	46826.014	389.33
0	6938	46842.609	157.46
0	6940	46845.706	147.67
0	6958	46931.161	227.645
0	6962	47007.694	285.792
0	6964	47008.981	229.754
0	6974	47106.975	280.126
0	6979	47132.93	284.81
0	6983	47155.68	300.38
0	6987	47169.559	298.214
0	6992	47186.101	274.068
0	6996	47196.34	272.437
0	7002	47259.605	217.578
0	7005	47268.396	174.209
0	7012	47316.84	202.01
0	7015	47322.608	145.015
0	7018	47333.28	40.999
0	7026	47354.985	16.658
0	7033	47376.12	29.783
0	7046	47409.187	42.615
0	7049	47441.496	63.921
0	7052	47450.92	63.379
0	7060	47473.167	68.401
0	7066	47507.541	53.752
0	7073	47528.236	56.377
0	7080	47576.511	64.449
0	7086	47628.333	103.753
0	7090	47662.4	121.632
0	7095	47669.601	64.404
0	7100	47722.072	54.703
0	7108	47767.407	29.904
0	7124	47951.329	213.613
0	7140	48023.938	246.019
0	7143	48033.307	199.771
0	7148	48057.063	216.744
0	7156	48143.719	298.335
0	7158	48146.107	278.518
0	7164	48164.764	260.963
0	7170	48220.227	227.138
0	7173	48235.427	237.964
0	7184	48306.825	307.988
0	7187	48320.77	321.203
0	7190	48327.98	324.952
0	7196	48348.463	309.714
0	7204	48415.362	318.544
0	7208	48460.496	299.562
0	7216	48535.362	271.633
0	7219	48541.247	270.91
0	7224	48589.45	292.471
0	7227	48597.096	264.633
0	7236	48634.149	247.879
0	7242	48680.199	186.352
0	7248	48767.694	261.599
0	7252	48816.537	194.696
0	7258	48878.093	204.498
0	7261	48882.195	144.768
0	7264	48885.819	54.472
0	7272	48965.736	73.931
0	7279	48980.798	13.272
0	7286	49061.481	82.575
0	7292	49105.891	85.045
0	7298	49158.075	86.456
0	7304	49197.49	45.217
0	7312	49268.95	71.759
0	7314	49278.004	36.078
0	7321	49308.959	2.182
0	7330	49381.684	56.456
0	7333	49395.937	29.034
0	7338	49411.601	0
0	7350	49472.26	16.528
0	7353	49482.618	26.1
0	7364	49542.888	80.173
0	7367	49559.705	76.609
0	7373	49581.611	84.173
0	7380	49670.943	158.748
0	7388	49713.706	145.109
0	7394	49763.299	107.037
0	7396	49768.248	69.649
0	7406	49817.821	105.034
0	7414	49892.955	155.453
0	7423	49918.888	149.548