version 2
run General-0-20220306-05:07:49-9112
attr configname General
attr datetime 20220306-05:07:49
attr experiment General
attr inifile omnetpp.ini
attr iterationvars $0=123
attr iterationvarsf 123-
attr measurement $0=123
attr network PolicyA
attr processid 9112
attr repetition 0
attr replication #0
attr resultdir results
attr runnumber 0
attr seedset 123

vector 0 PolicyA.queue "time spent on the queue" ETV
attr interpolationmode none
vector 1 PolicyA.queue "queue size after modification" ETV
attr interpolationmode none
vector 2 PolicyA.queue "queue size per minute" ETV
attr interpolationmode none
vector 3 PolicyA.queue "client processing order" ETV
attr interpolationmode none
vector 4 PolicyA.queue "processing time with client order" ETV
attr interpolationmode none
vector 5 PolicyA.queue "till processing order" ETV
attr interpolationmode none
vector 6 PolicyA.queue "client total time in the till" ETV
attr interpolationmode none
vector 7 PolicyA.source "number of clients entering the queue per timer interval" ETV
attr interpolationmode none
0	2	0	0
0	7	71.536	0
0	10	105.102	0
0	15	120.539	0
0	27	196.735	0
0	39	433.794	0
0	44	485.8	0
0	47	515.666	0
0	52	546.417	0
0	61	624.766	0
0	70	695.964	0
0	79	776.328	0
0	84	811.145	0
0	89	856.645	0
0	94	890.148	0
0	102	950.521	0
0	110	1031.414	0
0	121	1108.318	0
0	128	1172.122	0
0	131	1187.669	0
0	136	1203.704	0
0	141	1224.568	0
0	151	1314.604	0
0	156	1355.44	0
0	159	1360.253	0
0	163	1382.714	0
0	185	1515.077	0
0	189	1556.887	0
0	194	1607.307	0
0	200	1630.208	0
0	205	1671.475	0
0	209	1688.772	0
0	211	1695.692	0
0	219	1735.279	0
0	227	1769.733	0
0	242	1874.773	0
0	245	1894.709	0
0	253	1941.965	0
0	258	1966.968	0
0	266	1999.344	0
0	269	2018.046	0
0	277	2060.899	0
0	289	2169.759	0
0	296	2237.137	0
0	301	2248.706	0
0	304	2253.918	0
0	308	2276.615	0
0	314	2293.371	0
0	317	2307.689	0
0	319	2313.725	0
0	327	2357.873	0
0	329	2358.849	0
0	338	2397.745	0
0	348	2446.567	0
0	351	2453.461	0
0	357	2476.492	0
0	364	2519.496	0
0	373	2549.051	0
0	392	2664.901	0
0	396	2667.575	0
0	400	2683.358	0
0	406	2705.169	0
0	415	2753.982	0
0	427	2840.249	0
0	429	2842.888	0
0	438	2913.489	0
0	445	2999.812	0
0	450	3025.058	0
0	463	3149.11	0
0	466	3155.827	0
0	469	3172.313	0
0	472	3180.73	0
0	488	3310.398	0
0	502	3426.033	0
0	507	3494.011	0
0	510	3520.253	0
0	522	3642.011	0
0	526	3666.821	0
0	531	3705.879	0
0	538	3750.109	0
0	551	3901.565	0
0	559	4043.014	0
0	566	4089.749	0
0	570	4133.788	0
0	574	4154.836	0
0	592	4401.578	0
0	597	4445.319	0
0	600	4475.408	0
0	608	4535.515	0
0	613	4590.597	0
0	616	4616.39	0
0	633	4862.732	0
0	635	4863.054	0
0	639	4876.784	0
0	651	5007.577	0
0	654	5028.709	0
0	667	5130.715	0
0	674	5167.399	0
0	678	5205.932	0
0	680	5208.92	0
0	685	5241.273	0
0	698	5315.277	0
0	709	5415.25	0
0	714	5437.208	0
0	730	5731.695	0
0	735	5797.29	0
0	740	5839.164	0
0	743	5873.988	0
0	748	5885.975	0
0	758	5972.89	0
0	773	6100.783	0
0	779	6201.976	0
0	782	6213.265	0
0	796	6370.779	0
0	799	6395.584	0
0	805	6479.158	0
0	809	6492.989	0
0	817	6596.38	0
0	822	6601.359	0
0	824	6606.478	0
0	832	6646.34	0
0	837	6679.471	0
0	843	6713.526	0
0	848	6727.02	0
0	855	6754.811	0
0	864	6792.676	0
0	872	6829.946	0
0	883	6882.308	0
0	887	6902.707	0
0	895	6978.606	0
0	909	7085.933	0
0	916	7146.553	0
0	922	7213.742	0
0	928	7252.165	0
0	938	7454.517	0
0	941	7458.664	0
0	945	7462.257	0
0	955	7525.826	0
0	967	7677.747	0
0	975	7749.952	0
0	988	7982.784	0
0	993	8077.083	0
0	996	8098.933	0
0	1003	8132.227	0
0	1009	8200.505	0
0	1012	8212.531	0
0	1020	8267.953	0
0	1024	8280.367	0
0	1031	8326.391	0
0	1039	8342.589	0
0	1044	8353.938	0
0	1059	8503.152	0
0	1063	8525.865	0
0	1068	8567.72	0
0	1070	8576.257	0
0	1079	8592.856	0
0	1082	8600.615	0
0	1085	8606.639	0
0	1095	8642.098	0
0	1099	8663.666	0
0	1114	8764.127	0
0	1116	8764.461	0
0	1122	8771.941	0
0	1130	8811.746	0
0	1134	8823.786	0
0	1142	8860.97	0
0	1150	8900.129	0
0	1159	8996.35	0
0	1164	9013.465	0
0	1168	9048.616	0
0	1175	9070.456	0
0	1180	9083.174	0
0	1189	9135.513	0
0	1193	9137.047	0
0	1211	9283.718	0
0	1213	9287.908	0
0	1220	9337.695	0
0	1226	9365.827	0
0	1230	9389.194	0
0	1232	9395.88	0
0	1244	9447.314	0
0	1247	9467.127	0
0	1254	9497.895	0
0	1256	9498.253	0
0	1284	9740.751	0
0	1289	9795.345	0
0	1292	9816.466	0
0	1298	9876.455	0
0	1305	9939.727	0
0	1308	9947.873	0
0	1313	9986.763	0
0	1316	9989.582	0
0	1320	10008.084	0
0	1343	10220.607	0
0	1357	10440.124	0
0	1365	10563.881	0
0	1369	10600.807	0
0	1372	10610.472	0
0	1391	10982.757	0
0	1396	11095.027	0
0	1404	11204.576	0
0	1406	11205.568	0
0	1415	11252.088	0
0	1418	11257.406	0
0	1422	11284.417	0
0	1427	11299.749	0
0	1431	11326.05	0
0	1441	11376.424	0
0	1444	11396.252	0
0	1458	11461.149	0
0	1472	11594.728	0
0	1482	11756.333	0
0	1484	11756.387	0
0	1497	11934.07	0
0	1502	11993.858	0
0	1508	12033.196	0
0	1515	12111.606	0
0	1518	12114.816	0
0	1525	12188.41	0
0	1535	12305.169	0
0	1543	12343.262	0
0	1548	12411.798	0
0	1553	12456.067	0
0	1561	12556.331	0
0	1568	12582.248	0
0	1574	12608.055	0
0	1578	12638.746	0
0	1585	12666.401	0
0	1588	12672.989	0
0	1608	12839.506	0
0	1619	12973.232	0
0	1622	12987.081	0
0	1626	13006.988	0
0	1631	13030.758	0
0	1639	13119.281	0
0	1655	13311.439	0
0	1661	13419.79	0
0	1664	13427.283	0
0	1672	13470.157	0
0	1675	13475.96	0
0	1681	13522.809	0
0	1692	13572.694	0
0	1697	13649.148	0
0	1702	13663.711	0
0	1710	13705.898	0
0	1719	13755.121	0
0	1725	13808.133	0
0	1734	13879.18	0
0	1748	14115.566	0
0	1751	14131.458	0
0	1754	14138.555	0
0	1762	14220.945	0
0	1765	14253.684	0
0	1772	14291.206	0
0	1782	14375.773	0
0	1798	14560.126	0
0	1803	14609.702	0
0	1810	14679.659	0
0	1815	14723.53	0
0	1825	14822.848	0
0	1828	14826.177	0
0	1830	14826.54	0
0	1833	14834.008	0
0	1836	14839.496	0
0	1848	14898.904	0
0	1851	14913.097	0
0	1853	14917.293	0
0	1863	14950.101	0
0	1868	14973.224	0
0	1872	14992.918	0
0	1882	15032.585	0
0	1901	15176.872	0
0	1913	15281.01	0
0	1918	15316.253	0
0	1923	15399.981	0
0	1927	15424.257	0
0	1933	15461.88	0
0	1939	15519.567	0
0	1954	15607.778	0
0	1957	15618.602	0
0	1970	15774.356	0
0	1975	15817.084	0
0	1984	15972.425	0
0	1989	16073.983	0
0	1999	16172.421	0
0	2012	16434.632	0
0	2018	16502.167	0
0	2021	16533.385	0
0	2029	16596.728	0
0	2032	16615.088	0
0	2041	16694.37	0
0	2044	16706.636	0
0	2046	16708.042	0
0	2069	16892.552	0
0	2075	17023.426	0
0	2081	17051.338	0
0	2090	17218.921	0
0	2093	17220.168	0
0	2097	17226.246	0
0	2111	17376.379	0
0	2116	17404.337	0
0	2120	17411.268	0
0	2133	17551.134	0
0	2138	17616.166	0
0	2140	17616.596	0
0	2144	17633.469	0
0	2146	17637.353	0
0	2148	17638.148	0
0	2160	17702.301	0
0	2168	17749.267	0
0	2176	17788.633	0
0	2186	17851.993	0
0	2189	17865.722	0
0	2192	17874.397	0
0	2206	17962.743	0
0	2218	18035.945	0
0	2225	18097.32	0
0	2242	18507.079	0
0	2252	18697.86	0
0	2255	18700.228	0
0	2259	18728.417	0
0	2266	18814.097	0
0	2268	18817.471	0
0	2279	18896.612	0
0	2285	18910.407	0
0	2291	18931.321	0
0	2307	19119.988	0
0	2310	19128.421	0
0	2316	19172.469	0
0	2325	19312.178	0
0	2329	19324.519	0
0	2331	19324.524	0
0	2345	19412.563	0
0	2352	19444.783	0
0	2358	19494.637	0
0	2362	19524.522	0
0	2365	19531.247	0
0	2368	19539.438	0
0	2381	19635.875	0
0	2386	19657.761	0
0	2397	19748.955	0
0	2405	19846.742	0
0	2409	19868.486	0
0	2426	20021.844	0
0	2432	20112.575	0
0	2438	20147.506	0
0	2442	20169.769	0
0	2446	20200.175	0
0	2450	20209.308	0
0	2457	20240.433	0
0	2465	20325.776	0
0	2469	20349.15	0
0	2478	20408.314	0
0	2491	20498.956	0
0	2497	20524.636	0
0	2499	20526.709	0
0	2510	20663.952	0
0	2517	20728.887	0
0	2522	20748.556	0
0	2525	20757.304	0
0	2535	20827.652	0
0	2540	20844.714	0
0	2543	20851.904	0
0	2550	20896.554	0
0	2572	21084.314	0
0	2577	21143.633	0
0	2580	21157.369	0
0	2586	21204.812	0
0	2591	21255.405	0
0	2597	21298.252	0
0	2601	21328.704	0
0	2604	21335.703	0
0	2622	21473.504	0
0	2630	21502.745	0
0	2638	21600.36	0
0	2640	21602.647	0
0	2652	21732.19	0
0	2662	21857.328	0
0	2670	21962.881	0
0	2673	21972.182	0
0	2681	22063.567	0
0	2688	22098.558	0
0	2699	22222.214	0
0	2710	22424.897	0
0	2718	22547.975	0
0	2723	22610.65	0
0	2727	22635.15	0
0	2734	22749.965	0
0	2737	22764.751	0
0	2751	22862.959	0
0	2760	22974.924	0
0	2766	23050.398	0
0	2768	23052.774	0
0	2774	23096.328	0
0	2784	23161.639	0
0	2788	23195.893	0
0	2799	23274.205	0
0	2804	23318.961	0
0	2815	23393.295	0
0	2823	23441.127	0
0	2828	23475.956	0
0	2833	23548.467	0
0	2835	23555.374	0
0	2852	23748.415	0
0	2855	23756.437	0
0	2863	23815.432	0
0	2869	23841.436	0
0	2873	23869.797	0
0	2883	23933.899	0
0	2888	23972.614	0
0	2897	24083.159	0
0	2902	24093.032	0
0	2905	24103.93	0
0	2910	24125.209	0
0	2927	24355.665	0
0	2935	24439.022	0
0	2938	24455.748	0
0	2953	24616.781	0
0	2960	24665.307	0
0	2967	24727.85	0
0	2969	24729.643	0
0	2973	24741.505	0
0	2982	24807.603	0
0	2997	24992.538	0
0	3000	25012.047	0
0	3007	25081.337	0
0	3010	25107.489	0
0	3018	25172	0
0	3021	25186.979	0
0	3038	25359.052	0
0	3046	25492.516	0
0	3052	25507.851	0
0	3060	25591.591	0
0	3065	25627.898	0
0	3075	25781.234	0
0	3078	25788.698	0
0	3087	25843.783	0
0	3095	25942.995	0
0	3098	25973.606	0
0	3103	25987.526	0
0	3109	26063.163	0
0	3113	26073.863	0
0	3129	26179.456	0
0	3136	26232.866	0
0	3141	26290.276	0
0	3150	26354.594	0
0	3158	26431.657	0
0	3165	26518.46	0
0	3169	26526.029	0
0	3171	26526.155	0
0	3175	26541.372	0
0	3197	26724.179	0
0	3202	26773.094	0
0	3207	26861.319	0
0	3212	26874.004	0
0	3223	26985.508	0
0	3225	26985.763	0
0	3233	27023.5	0
0	3236	27034.953	0
0	3249	27176.204	0
0	3254	27221.826	0
0	3258	27240.831	0
0	3262	27277.877	0
0	3269	27302.661	0
0	3278	27338.692	0
0	3299	27666.792	0
0	3304	27748.055	0
0	3312	27860.891	0
0	3317	27910.793	0
0	3322	27988.699	0
0	3327	28012.18	0
0	3338	28138.969	0
0	3342	28147.679	0
0	3361	28461.076	0
0	3366	28520.635	0
0	3373	28579.349	0
0	3382	28751.223	0
0	3393	28888.611	0
0	3398	28924.867	0
0	3403	28993.996	0
0	3406	29010.115	0
0	3408	29011.778	0
0	3418	29059.747	0
0	3421	29066.304	0
0	3425	29094.406	0
0	3436	29168.694	0
0	3451	29368.924	0
0	3454	29373.277	0
0	3463	29410.215	0
0	3466	29427.05	0
0	3476	29510.833	0
0	3489	29641.484	0
0	3492	29652.697	0
0	3497	29666.809	0
0	3504	29715.994	0
0	3511	29773.854	0
0	3513	29774.711	0
0	3520	29829.259	0
0	3531	29897.361	0
0	3545	30073.685	0
0	3548	30086.613	0
0	3554	30170.885	0
0	3558	30180.396	0
0	3563	30200.106	0
0	3569	30219.173	0
0	3577	30242.686	0
0	3584	30299.409	0
0	3596	30407.659	0
0	3598	30412.629	0
0	3609	30471.473	0
0	3616	30533.576	0
0	3623	30580.799	0
0	3630	30674.781	0
0	3633	30688.609	0
0	3643	30733.695	0
0	3646	30748.879	0
0	3666	31056.78	0
0	3672	31162.275	0
0	3684	31366.316	0
0	3687	31374.492	0
0	3691	31397.664	0
0	3707	31662.716	0
0	3710	31666.281	0
0	3713	31673.569	0
0	3718	31695.583	0
0	3723	31719.664	0
0	3725	31720.038	0
0	3737	31830.431	0
0	3740	31835.697	0
0	3742	31849.488	0
0	3749	31863.582	0
0	3757	31903.527	0
0	3762	31939.106	0
0	3772	31964.679	0
0	3782	32010.216	0
0	3789	32058.913	0
0	3795	32095.058	0
0	3810	32248.059	0
0	3813	32265.313	0
0	3820	32284.033	0
0	3828	32376.463	0
0	3834	32446.725	0
0	3851	32590.118	0
0	3858	32794.033	0
0	3862	32828.001	0
0	3867	32867.834	0
0	3869	32875.394	0
0	3885	32981.194	0
0	3890	33011.153	0
0	3894	33024.265	0
0	3898	33050.799	0
0	3903	33069.516	0
0	3915	33166.173	0
0	3919	33198.489	0
0	3937	33413.899	0
0	3946	33584.189	0
0	3951	33604.306	0
0	3955	33630.051	0
0	3957	33631.924	0
0	3962	33649.165	0
0	3964	33649.972	0
0	3969	33663.087	0
0	3982	33735.009	0
0	3997	33787.653	0
0	4006	33963.878	0
0	4009	33980.326	0
0	4015	34056.294	0
0	4019	34092.769	0
0	4027	34128.487	0
0	4039	34228.87	0
0	4042	34258.263	0
0	4057	34440.47	0
0	4067	34560.726	0
0	4072	34623.63	0
0	4077	34720.901	0
0	4092	34931.492	0
0	4095	34962.13	0
0	4102	35065.594	0
0	4105	35077.335	0
0	4113	35141.145	0
0	4121	35243.129	0
0	4124	35249.339	0
0	4137	35381.8	0
0	4140	35397.739	0
0	4155	35540.475	0
0	4160	35598.507	0
0	4163	35610.011	0
0	4168	35632.037	0
0	4174	35660.533	0
0	4188	35736.647	0
0	4190	35737.598	0
0	4197	35786.557	0
0	4207	35905.417	0
0	4211	35939.004	0
0	4229	36180.052	0
0	4233	36229.021	0
0	4242	36361.563	0
0	4245	36373.749	0
0	4254	36491.945	0
0	4267	36604.115	0
0	4272	36674.314	0
0	4280	36810.362	0
0	4288	36906.099	0
0	4291	36919.076	0
0	4294	36927.058	0
0	4309	37132.651	0
0	4313	37161.89	0
0	4322	37228.047	0
0	4325	37239.88	0
0	4331	37307.118	0
0	4342	37351.093	0
0	4349	37422.219	0
0	4361	37622.197	0
0	4365	37666.271	0
0	4369	37690.417	0
0	4373	37726.695	0
0	4385	37809.985	0
0	4388	37820.27	0
0	4394	37846.354	0
0	4401	37882.154	0
0	4405	37909.356	0
0	4412	37937.857	0
0	4422	38015.494	0
0	4424	38016.446	0
0	4440	38120.19	0
0	4452	38223.402	0
0	4458	38365.95	0
0	4461	38376.642	0
0	4473	38478.69	0
0	4478	38562.963	0
0	4485	38631.054	0
0	4497	38728.246	0
0	4502	38761.041	0
0	4506	38813.252	0
0	4512	38848.929	0
0	4518	38853.932	0
0	4521	38866.828	0
0	4533	38999.024	0
0	4542	39062.518	0
0	4545	39088.415	0
0	4547	39093.398	0
0	4554	39118.61	0
0	4561	39153.917	0
0	4567	39187.88	0
0	4576	39232.786	0
0	4583	39274.072	0
0	4592	39335.637	0
0	4600	39366.753	0
0	4611	39509.433	0
0	4614	39525.981	0
0	4622	39590.091	0
0	4624	39591.117	0
0	4630	39610.637	0
0	4636	39654.737	0
0	4643	39698.163	0
0	4648	39737.771	0
0	4655	39771.747	0
0	4662	39793.902	0
0	4672	39860.003	0
0	4677	39880.608	0
0	4694	40132.928	0
0	4699	40170.273	0
0	4705	40218.721	0
0	4708	40228.193	0
0	4719	40332.723	0
0	4728	40403.171	0
0	4731	40435.124	0
0	4734	40435.375	0
0	4746	40546.714	0
0	4754	40567.17	0
0	4762	40631.289	0
0	4764	40633.492	0
0	4770	40648.516	0
0	4775	40671.535	0
0	4782	40744.687	0
0	4789	40769.955	0
0	4795	40802.939	0
0	4807	40901.125	0
0	4813	40920.654	0
0	4821	40994.159	0
0	4830	41050.905	0
0	4835	41113.178	0
0	4842	41163.613	0
0	4845	41194.034	0
0	4853	41234.319	0
0	4858	41260.291	0
0	4871	41356.318	0
0	4888	41744.842	0
0	4894	41836.791	0
0	4896	41839.562	0
0	4902	41870.06	0
0	4908	41881.31	0
0	4912	41914.549	0
0	4914	41917.175	0
0	4928	41993.743	0
0	4934	42039.15	0
0	4937	42049.027	0
0	4943	42071.052	0
0	4948	42093.277	0
0	4965	42232.749	0
0	4970	42273.451	0
0	4977	42345.302	0
0	4987	42428.235	0
0	4990	42454.661	0
0	4994	42472.101	0
0	4996	42474.816	0
0	5004	42505.174	0
0	5006	42509.58	0
0	5014	42534.139	0
0	5021	42574.723	0
0	5032	42617.577	0
0	5035	42622.718	0
0	5043	42652.278	0
0	5064	42939.999	0
0	5070	43032.848	0
0	5073	43039.788	0
0	5081	43106.559	0
0	5086	43124.111	0
1	2	0	0
1	7	71.536	0
1	10	105.102	0
1	15	120.539	0
1	27	196.735	0
1	39	433.794	0
1	44	485.8	0
1	47	515.666	0
1	52	546.417	0
1	61	624.766	0
1	70	695.964	0
1	79	776.328	0
1	84	811.145	0
1	89	856.645	0
1	94	890.148	0
1	102	950.521	0
1	110	1031.414	0
1	121	1108.318	0
1	128	1172.122	0
1	131	1187.669	0
1	136	1203.704	0
1	141	1224.568	0
1	151	1314.604	0
1	156	1355.44	0
1	159	1360.253	0
1	163	1382.714	0
1	185	1515.077	0
1	189	1556.887	0
1	194	1607.307	0
1	200	1630.208	0
1	205	1671.475	0
1	209	1688.772	0
1	211	1695.692	0
1	219	1735.279	0
1	227	1769.733	0
1	242	1874.773	0
1	245	1894.709	0
1	253	1941.965	0
1	258	1966.968	0
1	266	1999.344	0
1	269	2018.046	0
1	277	2060.899	0
1	289	2169.759	0
1	296	2237.137	0
1	301	2248.706	0
1	304	2253.918	0
1	308	2276.615	0
1	314	2293.371	0
1	317	2307.689	0
1	319	2313.725	0
1	327	2357.873	0
1	329	2358.849	0
1	338	2397.745	0
1	348	2446.567	0
1	351	2453.461	0
1	357	2476.492	0
1	364	2519.496	0
1	373	2549.051	0
1	392	2664.901	0
1	396	2667.575	0
1	400	2683.358	0
1	406	2705.169	0
1	415	2753.982	0
1	427	2840.249	0
1	429	2842.888	0
1	438	2913.489	0
1	445	2999.812	0
1	450	3025.058	0
1	463	3149.11	0
1	466	3155.827	0
1	469	3172.313	0
1	472	3180.73	0
1	488	3310.398	0
1	502	3426.033	0
1	507	3494.011	0
1	510	3520.253	0
1	522	3642.011	0
1	526	3666.821	0
1	531	3705.879	0
1	538	3750.109	0
1	551	3901.565	0
1	559	4043.014	0
1	566	4089.749	0
1	570	4133.788	0
1	574	4154.836	0
1	592	4401.578	0
1	597	4445.319	0
1	600	4475.408	0
1	608	4535.515	0
1	613	4590.597	0
1	616	4616.39	0
1	633	4862.732	0
1	635	4863.054	0
1	639	4876.784	0
1	651	5007.577	0
1	654	5028.709	0
1	667	5130.715	0
1	674	5167.399	0
1	678	5205.932	0
1	680	5208.92	0
1	685	5241.273	0
1	698	5315.277	0
1	709	5415.25	0
1	714	5437.208	0
1	730	5731.695	0
1	735	5797.29	0
1	740	5839.164	0
1	743	5873.988	0
1	748	5885.975	0
1	758	5972.89	0
1	773	6100.783	0
1	779	6201.976	0
1	782	6213.265	0
1	796	6370.779	0
1	799	6395.584	0
1	805	6479.158	0
1	809	6492.989	0
1	817	6596.38	0
1	822	6601.359	0
1	824	6606.478	0
1	832	6646.34	0
1	837	6679.471	0
1	843	6713.526	0
1	848	6727.02	0
1	855	6754.811	0
1	864	6792.676	0
1	872	6829.946	0
1	883	6882.308	0
1	887	6902.707	0
1	895	6978.606	0
1	909	7085.933	0
1	916	7146.553	0
1	922	7213.742	0
1	928	7252.165	0
1	938	7454.517	0
1	941	7458.664	0
1	945	7462.257	0
1	955	7525.826	0
1	967	7677.747	0
1	975	7749.952	0
1	988	7982.784	0
1	993	8077.083	0
1	996	8098.933	0
1	1003	8132.227	0
1	1009	8200.505	0
1	1012	8212.531	0
1	1020	8267.953	0
1	1024	8280.367	0
1	1031	8326.391	0
1	1039	8342.589	0
1	1044	8353.938	0
1	1059	8503.152	0
1	1063	8525.865	0
1	1068	8567.72	0
1	1070	8576.257	0
1	1079	8592.856	0
1	1082	8600.615	0
1	1085	8606.639	0
1	1095	8642.098	0
1	1099	8663.666	0
1	1114	8764.127	0
1	1116	8764.461	0
1	1122	8771.941	0
1	1130	8811.746	0
1	1134	8823.786	0
1	1142	8860.97	0
1	1150	8900.129	0
1	1159	8996.35	0
1	1164	9013.465	0
1	1168	9048.616	0
1	1175	9070.456	0
1	1180	9083.174	0
1	1189	9135.513	0
1	1193	9137.047	0
1	1211	9283.718	0
1	1213	9287.908	0
1	1220	9337.695	0
1	1226	9365.827	0
1	1230	9389.194	0
1	1232	9395.88	0
1	1244	9447.314	0
1	1247	9467.127	0
1	1254	9497.895	0
1	1256	9498.253	0
1	1284	9740.751	0
1	1289	9795.345	0
1	1292	9816.466	0
1	1298	9876.455	0
1	1305	9939.727	0
1	1308	9947.873	0
1	1313	9986.763	0
1	1316	9989.582	0
1	1320	10008.084	0
1	1343	10220.607	0
1	1357	10440.124	0
1	1365	10563.881	0
1	1369	10600.807	0
1	1372	10610.472	0
1	1391	10982.757	0
1	1396	11095.027	0
1	1404	11204.576	0
1	1406	11205.568	0
1	1415	11252.088	0
1	1418	11257.406	0
1	1422	11284.417	0
1	1427	11299.749	0
1	1431	11326.05	0
1	1441	11376.424	0
1	1444	11396.252	0
1	1458	11461.149	0
1	1472	11594.728	0
1	1482	11756.333	0
1	1484	11756.387	0
1	1497	11934.07	0
1	1502	11993.858	0
1	1508	12033.196	0
1	1515	12111.606	0
1	1518	12114.816	0
1	1525	12188.41	0
1	1535	12305.169	0
1	1543	12343.262	0
1	1548	12411.798	0
1	1553	12456.067	0
1	1561	12556.331	0
1	1568	12582.248	0
1	1574	12608.055	0
1	1578	12638.746	0
1	1585	12666.401	0
1	1588	12672.989	0
1	1608	12839.506	0
1	1619	12973.232	0
1	1622	12987.081	0
1	1626	13006.988	0
1	1631	13030.758	0
1	1639	13119.281	0
1	1655	13311.439	0
1	1661	13419.79	0
1	1664	13427.283	0
1	1672	13470.157	0
1	1675	13475.96	0
1	1681	13522.809	0
1	1692	13572.694	0
1	1697	13649.148	0
1	1702	13663.711	0
1	1710	13705.898	0
1	1719	13755.121	0
1	1725	13808.133	0
1	1734	13879.18	0
1	1748	14115.566	0
1	1751	14131.458	0
1	1754	14138.555	0
1	1762	14220.945	0
1	1765	14253.684	0
1	1772	14291.206	0
1	1782	14375.773	0
1	1798	14560.126	0
1	1803	14609.702	0
1	1810	14679.659	0
1	1815	14723.53	0
1	1825	14822.848	0
1	1828	14826.177	0
1	1830	14826.54	0
1	1833	14834.008	0
1	1836	14839.496	0
1	1848	14898.904	0
1	1851	14913.097	0
1	1853	14917.293	0
1	1863	14950.101	0
1	1868	14973.224	0
1	1872	14992.918	0
1	1882	15032.585	0
1	1901	15176.872	0
1	1913	15281.01	0
1	1918	15316.253	0
1	1923	15399.981	0
1	1927	15424.257	0
1	1933	15461.88	0
1	1939	15519.567	0
1	1954	15607.778	0
1	1957	15618.602	0
1	1970	15774.356	0
1	1975	15817.084	0
1	1984	15972.425	0
1	1989	16073.983	0
1	1999	16172.421	0
1	2012	16434.632	0
1	2018	16502.167	0
1	2021	16533.385	0
1	2029	16596.728	0
1	2032	16615.088	0
1	2041	16694.37	0
1	2044	16706.636	0
1	2046	16708.042	0
1	2069	16892.552	0
1	2075	17023.426	0
1	2081	17051.338	0
1	2090	17218.921	0
1	2093	17220.168	0
1	2097	17226.246	0
1	2111	17376.379	0
1	2116	17404.337	0
1	2120	17411.268	0
1	2133	17551.134	0
1	2138	17616.166	0
1	2140	17616.596	0
1	2144	17633.469	0
1	2146	17637.353	0
1	2148	17638.148	0
1	2160	17702.301	0
1	2168	17749.267	0
1	2176	17788.633	0
1	2186	17851.993	0
1	2189	17865.722	0
1	2192	17874.397	0
1	2206	17962.743	0
1	2218	18035.945	0
1	2225	18097.32	0
1	2242	18507.079	0
1	2252	18697.86	0
1	2255	18700.228	0
1	2259	18728.417	0
1	2266	18814.097	0
1	2268	18817.471	0
1	2279	18896.612	0
1	2285	18910.407	0
1	2291	18931.321	0
1	2307	19119.988	0
1	2310	19128.421	0
1	2316	19172.469	0
1	2325	19312.178	0
1	2329	19324.519	0
1	2331	19324.524	0
1	2345	19412.563	0
1	2352	19444.783	0
1	2358	19494.637	0
1	2362	19524.522	0
1	2365	19531.247	0
1	2368	19539.438	0
1	2381	19635.875	0
1	2386	19657.761	0
1	2397	19748.955	0
1	2405	19846.742	0
1	2409	19868.486	0
1	2426	20021.844	0
1	2432	20112.575	0
1	2438	20147.506	0
1	2442	20169.769	0
1	2446	20200.175	0
1	2450	20209.308	0
1	2457	20240.433	0
1	2465	20325.776	0
1	2469	20349.15	0
1	2478	20408.314	0
1	2491	20498.956	0
1	2497	20524.636	0
1	2499	20526.709	0
1	2510	20663.952	0
1	2517	20728.887	0
1	2522	20748.556	0
1	2525	20757.304	0
1	2535	20827.652	0
1	2540	20844.714	0
1	2543	20851.904	0
1	2550	20896.554	0
1	2572	21084.314	0
1	2577	21143.633	0
1	2580	21157.369	0
1	2586	21204.812	0
1	2591	21255.405	0
1	2597	21298.252	0
1	2601	21328.704	0
1	2604	21335.703	0
1	2622	21473.504	0
1	2630	21502.745	0
1	2638	21600.36	0
1	2640	21602.647	0
1	2652	21732.19	0
1	2662	21857.328	0
1	2670	21962.881	0
1	2673	21972.182	0
1	2681	22063.567	0
1	2688	22098.558	0
1	2699	22222.214	0
1	2710	22424.897	0
1	2718	22547.975	0
1	2723	22610.65	0
1	2727	22635.15	0
1	2734	22749.965	0
1	2737	22764.751	0
1	2751	22862.959	0
1	2760	22974.924	0
1	2766	23050.398	0
1	2768	23052.774	0
1	2774	23096.328	0
1	2784	23161.639	0
1	2788	23195.893	0
1	2799	23274.205	0
1	2804	23318.961	0
1	2815	23393.295	0
1	2823	23441.127	0
1	2828	23475.956	0
1	2833	23548.467	0
1	2835	23555.374	0
1	2852	23748.415	0
1	2855	23756.437	0
1	2863	23815.432	0
1	2869	23841.436	0
1	2873	23869.797	0
1	2883	23933.899	0
1	2888	23972.614	0
1	2897	24083.159	0
1	2902	24093.032	0
1	2905	24103.93	0
1	2910	24125.209	0
1	2927	24355.665	0
1	2935	24439.022	0
1	2938	24455.748	0
1	2953	24616.781	0
1	2960	24665.307	0
1	2967	24727.85	0
1	2969	24729.643	0
1	2973	24741.505	0
1	2982	24807.603	0
1	2997	24992.538	0
1	3000	25012.047	0
1	3007	25081.337	0
1	3010	25107.489	0
1	3018	25172	0
1	3021	25186.979	0
1	3038	25359.052	0
1	3046	25492.516	0
1	3052	25507.851	0
1	3060	25591.591	0
1	3065	25627.898	0
1	3075	25781.234	0
1	3078	25788.698	0
1	3087	25843.783	0
1	3095	25942.995	0
1	3098	25973.606	0
1	3103	25987.526	0
1	3109	26063.163	0
1	3113	26073.863	0
1	3129	26179.456	0
1	3136	26232.866	0
1	3141	26290.276	0
1	3150	26354.594	0
1	3158	26431.657	0
1	3165	26518.46	0
1	3169	26526.029	0
1	3171	26526.155	0
1	3175	26541.372	0
1	3197	26724.179	0
1	3202	26773.094	0
1	3207	26861.319	0
1	3212	26874.004	0
1	3223	26985.508	0
1	3225	26985.763	0
1	3233	27023.5	0
1	3236	27034.953	0
1	3249	27176.204	0
1	3254	27221.826	0
1	3258	27240.831	0
1	3262	27277.877	0
1	3269	27302.661	0
1	3278	27338.692	0
1	3299	27666.792	0
1	3304	27748.055	0
1	3312	27860.891	0
1	3317	27910.793	0
1	3322	27988.699	0
1	3327	28012.18	0
1	3338	28138.969	0
1	3342	28147.679	0
1	3361	28461.076	0
1	3366	28520.635	0
1	3373	28579.349	0
1	3382	28751.223	0
1	3393	28888.611	0
1	3398	28924.867	0
1	3403	28993.996	0
1	3406	29010.115	0
1	3408	29011.778	0
1	3418	29059.747	0
1	3421	29066.304	0
1	3425	29094.406	0
1	3436	29168.694	0
1	3451	29368.924	0
1	3454	29373.277	0
1	3463	29410.215	0
1	3466	29427.05	0
1	3476	29510.833	0
1	3489	29641.484	0
1	3492	29652.697	0
1	3497	29666.809	0
1	3504	29715.994	0
1	3511	29773.854	0
1	3513	29774.711	0
1	3520	29829.259	0
1	3531	29897.361	0
1	3545	30073.685	0
1	3548	30086.613	0
1	3554	30170.885	0
1	3558	30180.396	0
1	3563	30200.106	0
1	3569	30219.173	0
1	3577	30242.686	0
1	3584	30299.409	0
1	3596	30407.659	0
1	3598	30412.629	0
1	3609	30471.473	0
1	3616	30533.576	0
1	3623	30580.799	0
1	3630	30674.781	0
1	3633	30688.609	0
1	3643	30733.695	0
1	3646	30748.879	0
1	3666	31056.78	0
1	3672	31162.275	0
1	3684	31366.316	0
1	3687	31374.492	0
1	3691	31397.664	0
1	3707	31662.716	0
1	3710	31666.281	0
1	3713	31673.569	0
1	3718	31695.583	0
1	3723	31719.664	0
1	3725	31720.038	0
1	3737	31830.431	0
1	3740	31835.697	0
1	3742	31849.488	0
1	3749	31863.582	0
1	3757	31903.527	0
1	3762	31939.106	0
1	3772	31964.679	0
1	3782	32010.216	0
1	3789	32058.913	0
1	3795	32095.058	0
1	3810	32248.059	0
1	3813	32265.313	0
1	3820	32284.033	0
1	3828	32376.463	0
1	3834	32446.725	0
1	3851	32590.118	0
1	3858	32794.033	0
1	3862	32828.001	0
1	3867	32867.834	0
1	3869	32875.394	0
1	3885	32981.194	0
1	3890	33011.153	0
1	3894	33024.265	0
1	3898	33050.799	0
1	3903	33069.516	0
1	3915	33166.173	0
1	3919	33198.489	0
1	3937	33413.899	0
1	3946	33584.189	0
1	3951	33604.306	0
1	3955	33630.051	0
1	3957	33631.924	0
1	3962	33649.165	0
1	3964	33649.972	0
1	3969	33663.087	0
1	3982	33735.009	0
1	3997	33787.653	0
1	4006	33963.878	0
1	4009	33980.326	0
1	4015	34056.294	0
1	4019	34092.769	0
1	4027	34128.487	0
1	4039	34228.87	0
1	4042	34258.263	0
1	4057	34440.47	0
1	4067	34560.726	0
1	4072	34623.63	0
1	4077	34720.901	0
1	4092	34931.492	0
1	4095	34962.13	0
1	4102	35065.594	0
1	4105	35077.335	0
1	4113	35141.145	0
1	4121	35243.129	0
1	4124	35249.339	0
1	4137	35381.8	0
1	4140	35397.739	0
1	4155	35540.475	0
1	4160	35598.507	0
1	4163	35610.011	0
1	4168	35632.037	0
1	4174	35660.533	0
1	4188	35736.647	0
1	4190	35737.598	0
1	4197	35786.557	0
1	4207	35905.417	0
1	4211	35939.004	0
1	4229	36180.052	0
1	4233	36229.021	0
1	4242	36361.563	0
1	4245	36373.749	0
1	4254	36491.945	0
1	4267	36604.115	0
1	4272	36674.314	0
1	4280	36810.362	0
1	4288	36906.099	0
1	4291	36919.076	0
1	4294	36927.058	0
1	4309	37132.651	0
1	4313	37161.89	0
1	4322	37228.047	0
1	4325	37239.88	0
1	4331	37307.118	0
1	4342	37351.093	0
1	4349	37422.219	0
1	4361	37622.197	0
1	4365	37666.271	0
1	4369	37690.417	0
1	4373	37726.695	0
1	4385	37809.985	0
1	4388	37820.27	0
1	4394	37846.354	0
1	4401	37882.154	0
1	4405	37909.356	0
1	4412	37937.857	0
1	4422	38015.494	0
1	4424	38016.446	0
1	4440	38120.19	0
1	4452	38223.402	0
1	4458	38365.95	0
1	4461	38376.642	0
1	4473	38478.69	0
1	4478	38562.963	0
1	4485	38631.054	0
1	4497	38728.246	0
1	4502	38761.041	0
1	4506	38813.252	0
1	4512	38848.929	0
1	4518	38853.932	0
1	4521	38866.828	0
1	4533	38999.024	0
1	4542	39062.518	0
1	4545	39088.415	0
1	4547	39093.398	0
1	4554	39118.61	0
1	4561	39153.917	0
1	4567	39187.88	0
1	4576	39232.786	0
1	4583	39274.072	0
1	4592	39335.637	0
1	4600	39366.753	0
1	4611	39509.433	0
1	4614	39525.981	0
1	4622	39590.091	0
1	4624	39591.117	0
1	4630	39610.637	0
1	4636	39654.737	0
1	4643	39698.163	0
1	4648	39737.771	0
1	4655	39771.747	0
1	4662	39793.902	0
1	4672	39860.003	0
1	4677	39880.608	0
1	4694	40132.928	0
1	4699	40170.273	0
1	4705	40218.721	0
1	4708	40228.193	0
1	4719	40332.723	0
1	4728	40403.171	0
1	4731	40435.124	0
1	4734	40435.375	0
1	4746	40546.714	0
1	4754	40567.17	0
1	4762	40631.289	0
1	4764	40633.492	0
1	4770	40648.516	0
1	4775	40671.535	0
1	4782	40744.687	0
1	4789	40769.955	0
1	4795	40802.939	0
1	4807	40901.125	0
1	4813	40920.654	0
1	4821	40994.159	0
1	4830	41050.905	0
1	4835	41113.178	0
1	4842	41163.613	0
1	4845	41194.034	0
1	4853	41234.319	0
1	4858	41260.291	0
1	4871	41356.318	0
1	4888	41744.842	0
1	4894	41836.791	0
1	4896	41839.562	0
1	4902	41870.06	0
1	4908	41881.31	0
1	4912	41914.549	0
1	4914	41917.175	0
1	4928	41993.743	0
1	4934	42039.15	0
1	4937	42049.027	0
1	4943	42071.052	0
1	4948	42093.277	0
1	4965	42232.749	0
1	4970	42273.451	0
1	4977	42345.302	0
1	4987	42428.235	0
1	4990	42454.661	0
1	4994	42472.101	0
1	4996	42474.816	0
1	5004	42505.174	0
1	5006	42509.58	0
1	5014	42534.139	0
1	5021	42574.723	0
1	5032	42617.577	0
1	5035	42622.718	0
1	5043	42652.278	0
1	5064	42939.999	0
1	5070	43032.848	0
1	5073	43039.788	0
1	5081	43106.559	0
1	5086	43124.111	0
2	5	60	0
2	13	120	0
2	23	180	0
2	30	240	0
2	33	300	0
2	36	360	0
2	37	420	0
2	42	480	0
2	50	540	0
2	57	600	0
2	68	660	0
2	72	720	0
2	80	780	0
2	86	840	0
2	97	900	0
2	104	960	0
2	108	1020	0
2	119	1080	0
2	123	1140	0
2	134	1200	0
2	148	1260	0
2	153	1320	0
2	161	1380	0
2	172	1440	0
2	181	1500	0
2	190	1560	0
2	196	1620	0
2	207	1680	0
2	222	1740	0
2	230	1800	0
2	236	1860	0
2	248	1920	0
2	261	1980	0
2	272	2040	0
2	282	2100	0
2	287	2160	0
2	294	2220	0
2	309	2280	0
2	324	2340	0
2	340	2400	0
2	354	2460	0
2	365	2520	0
2	382	2580	0
2	388	2640	0
2	402	2700	0
2	417	2760	0
2	423	2820	0
2	434	2880	0
2	440	2940	0
2	447	3000	0
2	455	3060	0
2	459	3120	0
2	470	3180	0
2	479	3240	0
2	484	3300	0
2	495	3360	0
2	500	3420	0
2	505	3480	0
2	513	3540	0
2	518	3600	0
2	524	3660	0
2	533	3720	0
2	542	3780	0
2	546	3840	0
2	549	3900	0
2	556	3960	0
2	557	4020	0
2	564	4080	0
2	572	4140	0
2	581	4200	0
2	584	4260	0
2	589	4320	0
2	590	4380	0
2	595	4440	0
2	603	4500	0
2	610	4560	0
2	617	4620	0
2	623	4680	0