version 2
run General-0-20220308-02:48:59-8812
attr configname General
attr datetime 20220308-02:48:59
attr experiment General
attr inifile omnetpp.ini
attr iterationvars $0=789
attr iterationvarsf 789-
attr measurement $0=789
attr network PolicyA
attr processid 8812
attr repetition 0
attr replication #0
attr resultdir results
attr runnumber 0
attr seedset 789

vector 0 PolicyA.queue "time spent on the queue" ETV
attr interpolationmode none
vector 1 PolicyA.queue "queue size after modification" ETV
attr interpolationmode none
vector 2 PolicyA.queue "queue size per minute" ETV
attr interpolationmode none
vector 3 PolicyA.queue "client processing order" ETV
attr interpolationmode none
vector 4 PolicyA.queue "processing time with client order" ETV
attr interpolationmode none
vector 5 PolicyA.queue "till processing order" ETV
attr interpolationmode none
vector 6 PolicyA.queue "client total time in the till" ETV
attr interpolationmode none
vector 7 PolicyA.source "number of clients entering the queue per timer interval" ETV
attr interpolationmode none
0	2	0	0
0	5	11.717	0
0	8	15.978	0
0	11	23.829	0
0	13	24.463	0
0	23	71.827	0
0	28	144.052	0
0	31	167.227	0
0	35	186.159	0
0	37	187.555	0
0	42	196.239	0.465
0	63	303.177	68.304
0	70	329.806	65.284
0	74	343.876	75.275
0	82	390.504	106.24
0	86	394.218	98.053
0	92	409.613	99.892
0	96	428.505	102.703
0	106	458.766	91.876
0	114	522.543	128.819
0	124	549.006	149.391
0	128	555.037	109.049
0	136	593.89	137.561
0	144	642.698	165.975
0	149	675.362	146.049
0	152	689.182	152.623
0	163	760.185	217.237
0	170	817.993	268.597
0	172	818.182	257.57
0	174	826.134	217.113
0	182	847.416	154.973
0	189	895.725	143.678
0	191	897.216	79.513
0	205	981.53	136.915
0	208	989.351	70.4
0	211	1004.326	61.041
0	215	1017.741	60.122
0	220	1029.886	6.357
0	230	1058.92	16.455
0	233	1063.792	20.51
0	242	1112.53	42.805
0	248	1120.022	5.921
0	258	1179.032	0
0	263	1213.545	0
0	275	1284.689	0
0	277	1285.429	0
0	281	1306.913	0
0	289	1340.256	18.648
0	295	1365.261	11.271
0	304	1394.53	20.301
0	308	1401.413	24.147
0	321	1433.399	33.284
0	329	1448.73	39.954
0	336	1490.573	72.182
0	342	1514.495	95.664
0	346	1554.967	132.763
0	354	1611.317	172.039
0	359	1629.609	163.245
0	361	1630.537	121.986
0	382	1730.712	143.566
0	388	1748.864	136.152
0	395	1777.819	132.831
0	404	1816.453	155.913
0	415	1859.058	192.143
0	422	1893.793	218.724
0	427	1914.477	218.537
0	429	1918.188	211.001
0	432	1921.193	183.567
0	447	2045.622	281.762
0	449	2062.01	286.793
0	459	2076.312	278.906
0	461	2083.522	253.939
0	483	2216.378	369.384
0	486	2228.245	369.78
0	489	2234.08	374.957
0	495	2242.743	342.4
0	507	2281.366	280.581
0	514	2305.413	267.186
0	524	2372.52	310.495
0	526	2373.103	308.926
0	540	2426.26	358.148
0	544	2438.041	308.11
0	550	2475.384	342.26
0	559	2513.297	366.268
0	563	2533.893	358.922
0	571	2586.298	378.5
0	573	2590.059	375.869
0	577	2607.26	367.847
0	583	2629.013	359.514
0	585	2634.173	361.22
0	598	2688.732	404.018
0	609	2740.655	453.624
0	613	2762.211	440.437
0	615	2766.702	438.504
0	619	2774.295	387.88
0	625	2803.208	406.736
0	639	2840.84	422.502
0	642	2861.712	429.672
0	646	2882.777	396.762
0	654	2927.398	437.179
0	658	2946.283	407.83
0	661	2961.455	347.981
0	674	3000.169	345.093
0	678	3021.195	345.062
0	686	3068.608	360.14
0	689	3094.47	379.561
0	695	3100.228	364.3
0	703	3176.152	404.037
0	708	3215.125	394.963
0	715	3292.545	463.148
0	727	3325.097	492.2
0	730	3337.2	418.771
0	736	3356.989	395.498
0	746	3373.65	410.585
0	753	3394.563	421.86
0	764	3449.747	412.689
0	768	3461.561	362.974
0	779	3519.506	420.763
0	787	3554.024	289.678
0	800	3637.297	333.526
0	802	3640.424	322.993
0	806	3656.645	337.511
0	811	3674.774	352.463
0	816	3691.872	354.512
0	822	3719.947	360.143
0	825	3721.088	355.256
0	832	3774.249	392.814
0	846	3853.211	470.943
0	848	3859.002	461.469
0	856	3887.21	451.078
0	864	3910.665	459.953
0	878	3973.004	469.937
0	880	3975.717	459.041
0	883	3978.205	457.57
0	888	3997.088	454.028
0	891	3998.383	400.988
0	900	4013.153	402.284
0	903	4016.644	380.54
0	916	4128.494	414.01
0	922	4147.915	352.7
0	925	4156.637	316.302
0	935	4204.263	361.763
0	943	4256.987	409.101
0	946	4260.97	392.73
0	954	4279.754	407.919
0	963	4308.973	411.149
0	967	4318.643	374.837
0	975	4365.295	408.025
0	978	4374.409	411.144
0	984	4429.157	460.899
0	988	4444.269	458.699
0	993	4457.582	449.496
0	1002	4503.74	495.546
0	1005	4522.233	457.304
0	1015	4556.996	413.52
0	1021	4617.515	457.996
0	1024	4622.482	412.184
0	1028	4632.194	403.017
0	1035	4680.128	404.639
0	1039	4727.246	450.894
0	1043	4728.821	443.946
0	1058	4800.188	494.635
0	1062	4816.789	467.08
0	1066	4821.036	365.757
0	1074	4849.14	391.283
0	1080	4882.302	346.826
0	1099	4980.979	426.859
0	1101	4989.841	433.461
0	1109	5017.773	289.217
0	1112	5023.583	265.963
0	1124	5082.162	311.44
0	1128	5123.318	334.154
0	1131	5131.124	318.473
0	1144	5195.655	368.572
0	1149	5216.611	377.033
0	1152	5220.212	312.285
0	1156	5235.232	325.924
0	1172	5316.194	371.098
0	1175	5337.08	377.879
0	1181	5377.814	413.185
0	1183	5378.12	412.831
0	1194	5414.428	422.172
0	1209	5528.792	516.367
0	1211	5534.126	458.39
0	1217	5560.394	482.242
0	1226	5608.843	473.648
0	1228	5622.82	462.391
0	1236	5670.227	490.713
0	1242	5694.04	494.62
0	1247	5723.042	478.245
0	1257	5803.706	529.29
0	1261	5835.25	542.87
0	1268	5849.748	536.435
0	1272	5875.541	476.677
0	1280	5910.428	498.129
0	1282	5914.425	493.109
0	1292	5954.95	504.776
0	1297	5979.801	474.013
0	1303	6020.276	496.388
0	1309	6036.711	493.272
0	1320	6085.876	524.655
0	1322	6086.098	417.151
0	1330	6093.303	413.153
0	1334	6095.676	370.354
0	1339	6098.854	344.697
0	1354	6147.802	301.445
0	1358	6158.321	311.811
0	1373	6214.971	320.514
0	1386	6284.631	360.654
0	1394	6315.336	354.082
0	1406	6401.333	368.51
0	1419	6467.187	424.724
0	1421	6469.962	403.497
0	1431	6510.858	437.038
0	1436	6517.105	424.938
0	1451	6560.644	468.045
0	1453	6571.885	478.437
0	1461	6606.381	507.652
0	1463	6608.151	497.679
0	1465	6608.675	495.183
0	1473	6622.091	473.218
0	1490	6718.785	552.759
0	1498	6737.284	562.573
0	1501	6751.651	572.948
0	1504	6758.655	561.756
0	1511	6795.542	535.398
0	1517	6867.588	600.825
0	1519	6868.186	597.638
0	1523	6896.567	618.91
0	1525	6899.649	613.722
0	1540	7022.074	724.858
0	1542	7022.821	693.083
0	1548	7034.934	646.047
0	1557	7081.4	689.502
0	1560	7099.467	696.649
0	1564	7123.79	714.229
0	1568	7142.273	728.409
0	1576	7205.689	749.432
0	1581	7236.614	742.78
0	1583	7245.622	737.999
0	1591	7290.6	779.539
0	1607	7410.714	893.298
0	1610	7424.253	881.028
0	1615	7447.62	898.723
0	1618	7450.514	900.05
0	1627	7515.951	924.623
0	1638	7570.667	948.945
0	1641	7583.456	921.37
0	1649	7628.683	964.156
0	1652	7648.764	959.299
0	1657	7680.715	979.821
0	1662	7723.593	999.998
0	1664	7730.539	994.753
0	1673	7799.979	889.902
0	1677	7807.474	819.238
0	1681	7841.011	811.991
0	1688	7850.635	772.06
0	1692	7862.964	629.022
0	1697	7868.695	565.675
0	1703	7898.768	589.061
0	1713	7949.613	580.569
0	1720	7952.315	576.638
0	1726	7980.008	604.186
0	1729	7984.719	506.276
0	1738	8032.445	477.765
0	1742	8044.302	482.111
0	1748	8070.857	503.287
0	1750	8071.947	454.334
0	1763	8182.397	399.646
0	1766	8204.43	359.418
0	1777	8244.05	379.966
0	1783	8261.835	361.111
0	1785	8263.29	333.23
0	1800	8368.243	418.329
0	1803	8388.887	437.175
0	1815	8424.009	462.732
0	1820	8426.483	415.349
0	1825	8436.782	372.778
0	1830	8458.143	384.724
0	1833	8460.36	319.309
0	1835	8463.544	230.246
0	1847	8500.587	266.841
0	1872	8651.596	408.267
0	1877	8669.048	421.255
0	1883	8695.353	416.447
0	1885	8698.56	347.713
0	1891	8727.929	374.946
0	1893	8734.317	341.503
0	1907	8831.805	427.126
0	1910	8856.907	433.745
0	1914	8879.533	455.342
0	1919	8907.118	472.65
0	1924	8917.25	446.848
0	1928	8934.959	460.031
0	1933	8952.71	430.324
0	1949	9057.025	523.408
0	1951	9057.183	520.501
0	1956	9071.904	525.682
0	1961	9098.042	548.2
0	1975	9147.407	562.167
0	1980	9193.31	565.849
0	1983	9203.731	560.696
0	1985	9211.858	558.039
0	1989	9225.471	543.919
0	2008	9322.352	578.799
0	2013	9339.589	583.641
0	2018	9350.522	441.378
0	2022	9363.915	387.663
0	2025	9365.032	374.34
0	2027	9370.288	369.053
0	2042	9425.469	370.11
0	2051	9467.505	357.566
0	2053	9469.782	343.216
0	2066	9559.276	419.265
0	2078	9627.728	482.176
0	2081	9647.332	421.334
0	2085	9664.962	398.459
0	2090	9671.528	371.149
0	2095	9683.236	375.091
0	2098	9689.696	376.91
0	2101	9702.08	364.107
0	2108	9723.925	380.532
0	2119	9802.746	417.433
0	2126	9849.732	442.29
0	2129	9865.646	425.141
0	2142	9906.917	458.814
0	2146	9922.171	462.278
0	2151	9941.701	467.904
0	2156	9950.591	450.96
0	2164	9994.782	423.457
0	2175	10052.193	466.359
0	2181	10080.956	494.112
0	2184	10084.665	419.592
0	2190	10100.167	347.814
0	2192	10106.719	331.529
0	2207	10191.672	383.198
0	2216	10205.945	330.365
0	2219	10217.792	317.451
0	2226	10256.463	352.817
0	2233	10287.625	381.382
0	2235	10292.273	363.453
0	2244	10319.329	372.317
0	2259	10464.995	464.28
0	2261	10468.597	443.586
0	2264	10476.243	440.974
0	2266	10480.297	415.398
0	2277	10523.665	431.353
0	2281	10526.47	349.598
0	2289	10572.164	387.615
0	2294	10596.669	407.147
0	2298	10615.733	417.173
0	2302	10628.958	423.695
0	2319	10721.175	497.523
0	2323	10740.507	467.585
0	2328	10753.938	457.686
0	2336	10800.173	485.455
0	2341	10813.084	465.017
0	2343	10820.211	446.59
0	2348	10840.428	387.162
0	2361	10893.78	384.288
0	2366	10915.521	374.315
0	2380	10973.205	391.438
0	2393	11019.199	376.693
0	2396	11029.696	344.907
0	2402	11048.433	346.665
0	2407	11057.28	354.991
0	2417	11157.566	450.221
0	2422	11170.34	418.137
0	2429	11209.455	396.488
0	2441	11260.792	416.85
0	2445	11297.106	431.708
0	2451	11362.576	490.063
0	2453	11363.801	463.269
0	2455	11364.907	448.765
0	2467	11447.03	510.476
0	2476	11488.487	542.205
0	2481	11575.281	612.698
0	2485	11583.484	597.088
0	2493	11657.011	648.971
0	2498	11711.612	696.027
0	2501	11726.902	709.318
0	2503	11728.518	698.705
0	2517	11784.126	729.209
0	2528	11809.424	721.002
0	2530	11810.227	650.989
0	2542	11862.309	665.749
0	2552	11894.363	675.973
0	2555	11901.155	675.193
0	2562	11936.88	681.158
0	2565	11943.227	573.669
0	2574	11993.418	536.552
0	2583	12019.644	558.899
0	2593	12088.783	448.027
0	2595	12102.722	360.753
0	2600	12110.423	368.289
0	2608	12142.551	389.756
0	2621	12222.925	438.238
0	2623	12226.441	439.933
0	2626	12229.942	431.677
0	2633	12249.51	444.67
0	2635	12251.105	430.025
0	2649	12349.657	520.396
0	2655	12372.087	500.129
0	2657	12386.373	498.407
0	2664	12414.783	523.25
0	2674	12436.455	514.996
0	2685	12485.511	519.725
0	2693	12504.631	502.296
0	2695	12516.305	503.693
0	2702	12531.231	510.295
0	2717	12579.57	512.698
0	2722	12602.899	495.928
0	2725	12612.09	470.114
0	2727	12615.926	454.971
0	2736	12684.202	513.865
0	2739	12702.227	489.087
0	2742	12707.866	472.093
0	2745	12727.411	471.868
0	2749	12730.23	380.933
0	2754	12740.09	370.218
0	2762	12825.333	426.998
0	2770	12859.227	429.563
0	2782	12917.449	485.834
0	2787	12923.651	467.328
0	2789	12937.836	463.701
0	2795	12965.44	480.187
0	2797	12965.699	468.349
0	2801	12978.595	477.596
0	2810	13025.132	502.814
0	2813	13062.659	515.411
0	2822	13173.545	622.603
0	2832	13254.108	681.241
0	2835	13260.647	682.118
0	2837	13263.239	421.165
0	2844	13281.679	438.249
0	2846	13286.188	424.358
0	2848	13291	412.249
0	2858	13312.346	408.539
0	2868	13370.689	450.828
0	2875	13407.286	263.309
0	2878	13417.402	203.005
0	2883	13437.151	215.908
0	2888	13459.09	180.55
0	2897	13526.053	217.598
0	2901	13535.176	198.672
0	2913	13623.232	234.328
0	2922	13711.394	282.402
0	2924	13712.351	235.628
0	2928	13732.909	198.284
0	2936	13751.286	169.803
0	2939	13755.13	142.043
0	2949	13797.333	166.425
0	2956	13866.663	228.67
0	2960	13882.64	149.409
0	2971	13948.192	210.123
0	2980	14015.939	253.091
0	2992	14114.549	246.91
0	2994	14115.211	178.075
0	3000	14139.788	197.442
0	3012	14180.844	217.763
0	3015	14189.583	188.099
0	3018	14197.901	141.683
0	3024	14215.945	133.459
0	3033	14251.56	143.934
0	3035	14254.087	133.202
0	3050	14369.042	227.889
0	3059	14394.577	250.564
0	3061	14395.25	224.08
0	3073	14439.833	230.421
0	3079	14458.741	234.258
0	3081	14459.839	157.509
0	3095	14507.428	198.054
0	3097	14509.266	141.168
0	3099	14510.472	138.334
0	3101	14510.502	133.665
0	3110	14531.03	153.815
0	3115	14550.568	141.151
0	3123	14624.13	204.223
0	3135	14713.341	267.935
0	3138	14725.566	250.052
0	3141	14729.821	228.207
0	3151	14771.19	264.712
0	3159	14795.725	265.927
0	3173	14844.99	172.762
0	3177	14882.597	171.893
0	3183	14899.808	188.518
0	3191	14924.031	187.674
0	3202	14957.18	193.489
0	3204	14957.86	185.746
0	3207	14961.115	181.065
0	3211	14972.346	155.047
0	3221	15019.909	202.545
0	3228	15076.559	257.706
0	3233	15117.484	272.616
0	3239	15154.085	255.503
0	3242	15171.1	259.677
0	3245	15185.026	266.28
0	3260	15308.616	376.675
0	3262	15314.223	372.476
0	3266	15337.467	390.553
0	3273	15354.2	325.912
0	3279	15370.836	267.766
0	3284	15416.451	151.121
0	3291	15429.444	138.113
0	3295	15451.259	146.447
0	3302	15486.098	135.808
0	3312	15570.198	206.662
0	3320	15627.22	203.485
0	3329	15665.528	198.457
0	3331	15679.326	179.351
0	3340	15722.499	171.049
0	3344	15725.51	122.543
0	3350	15761.436	127.523
0	3352	15762.914	122.323
0	3355	15765.634	86.19
0	3372	15854.738	130.367
0	3375	15869.808	131.897
0	3377	15875.794	89.053
0	3383	15885.121	72.17
0	3394	15923.678	69.09
0	3398	15929.75	46.27
0	3405	15947.136	60.046
0	3413	15974.865	61.388
0	3419	16023.231	97.536
0	3422	16041.591	95.881
0	3428	16116.983	162.76
0	3434	16142.803	23.816
0	3442	16185.226	0
0	3444	16186.11	0
0	3455	16203.507	9.101
0	3462	16236.489	40.191
0	3466	16257.938	36.723
0	3482	16304.967	44.274
0	3484	16307.002	22.956
0	3501	16363.032	72.595
0	3507	16402.813	105.319
0	3510	16413.629	114.145
0	3516	16438.241	127.906
0	3522	16448.496	134.641
0	3536	16490.88	174.541
0	3543	16519.649	169.724
0	3549	16596.297	235.534
0	3556	16672.053	274.494
0	3562	16687.952	264.984
0	3564	16700.998	260.245
0	3578	16761.903	309.609
0	3583	16793.952	333.378
0	3591	16802.359	328.143
0	3599	16840.232	353.923
0	3606	16952.113	437.993
0	3611	16968.205	342.031
0	3616	17001.342	313.598
0	3619	17006.402	300.24
0	3623	17029.584	311.088
0	3630	17045.475	317.048
0	3632	17047.492	272.43
0	3639	17090.409	293.353
0	3647	17150.48	338.489
0	3662	17191.587	376.122
0	3666	17222.59	261.374
0	3678	17283.271	248.772
0	3683	17307.772	159.205
0	3691	17337.078	182.476
0	3696	17370.968	213.161
0	3705	17435.53	264.123
0	3708	17451.749	272.359
0	3711	17461.145	275.322
0	3723	17495.875	264.606
0	3736	17580.139	323.304
0	3744	17628.729	367.502
0	3746	17635.297	344.71
0	3751	17667.714	352.858
0	3755	17680.906	356.206
0	3761	17687.817	277.581
0	3768	17739.303	251.662
0	3772	17775.16	281.965
0	3780	17799.214	304.592
0	3789	17918.678	378.519
0	3797	17941.338	400.877
0	3799	17941.845	377.959
0	3801	17945.697	342.037
0	3810	17997.193	368.863
0	3816	18010.602	327.283
0	3820	18025.172	243.291
0	3822	18029.812	244.282
0	3826	18031.01	144.748
0	3836	18061.476	130.591
0	3846	18137.618	199.718
0	3851	18165.088	163.995
0	3876	18260.219	229.78
0	3878	18261.389	220.692
0	3881	18276.088	170.792
0	3886	18287.371	124.817
0	3901	18329.563	159.72
0	3906	18335.053	153.203
0	3920	18393.684	195.96
0	3935	18445.372	237.797
0	3937	18460.19	240.663
0	3949	18563.645	334.964
0	3963	18601.606	369.77
0	3966	18624.724	387.883
0	3968	18634.563	385.328
0	3978	18688.422	409.313
0	3981	18693.037	389.868
0	3989	18731.889	425.826
0	3994	18761.086	443.438
0	4003	18773.387	439.755
0	4013	18840.436	488.032
0	4026	18873.514	518.857
0	4029	18879.308	516.706
0	4036	18916.101	527.707
0	4039	18917.911	519.802
0	4049	18966.123	562.585
0	4060	19037.48	613.804
0	4062	19042.712	615.357
0	4065	19051.67	623.289
0	4068	19062.686	579.13
0	4081	19114.25	611.61
0	4085	19116.498	548.953
0	4091	19130.69	555.176
0	4100	19158.084	560.697
0	4103	19162.807	562.569
0	4107	19170.79	495.521
0	4120	19256.619	532.511
0	4123	19263.138	526.449
0	4138	19341.163	577.273
0	4145	19351.146	578.236
0	4150	19359.808	586.702
0	4164	19440.553	611.622
0	4166	19444.244	602.015
0	4169	19449.223	605.193
0	4171	19452.889	605.682
0	4174	19456.963	591.918
0	4178	19476.398	606.976
0	4197	19527.011	628.678
0	4208	19599.445	648.338
0	4212	19636.138	659.193
0	4216	19651.66	659.227
0	4218	19665.348	656.505
0	4226	19685.887	598.131
0	4235	19716.272	624.354
0	4245	19774.426	659.534
0	4248	19784.292	654.424
0	4251	19798.832	667.822
0	4261	19859.663	728.102
0	4268	19907.763	733.442
0	4274	19949.806	704.027
0	4278	19967.375	693.522
0	4282	19982.061	690.393
0	4288	20019.762	704.725
0	4294	20061.731	728.068
0	4298	20091.102	748.728
0	4302	20104.121	759.923
0	4310	20145.098	788.629
0	4314	20161.415	799.449
0	4317	20186.716	810.363
0	4326	20208.643	810.361
0	4328	20215.79	720.756
0	4339	20287.395	783.002
0	4348	20341.627	827.601
0	4351	20350.921	829.108
0	4362	20421.139	876.794
0	4367	20436.954	859.611
0	4369	20439.665	852.873
0	4374	20451.483	777.015
0	4390	20547.302	847.239
0	4393	20551.913	844.292
0	4408	20583.906	844.995
0	4410	20591.46	825.205
0	4419	20639.034	802.245
0	4424	20673.042	805.317
0	4433	20719.93	786.462
0	4440	20757.743	714.103
0	4444	20764.99	632.8
0	4446	20765.499	567.023
0	4458	20804.177	599.108
0	4466	20842.053	578.941
0	4470	20860.176	563.13
0	4480	20920.064	605.436
0	4490	20952.368	582.457
0	4492	20954.263	567.727
0	4499	20971.874	548.595
0	4511	21038.928	594.409
0	4513	21043.834	542.559
0	4520	21075.13	572.572
0	4527	21087.422	565.923
0	4529	21094.015	540.781
0	4531	21102.835	547.055
0	4545	21171.75	597.846
0	4553	21210.364	636.371
0	4559	21249.523	671.893
0	4561	21254.866	627.048
0	4563	21260.577	564.26
0	4565	21261.444	560.123
0	4577	21298.808	566.904
0	4581	21332.97	596.833
0	4587	21355.02	567.803
0	4591	21366.738	575.577
0	4602	21442.43	637.594
0	4609	21498.753	660.822
0	4612	21527.439	632.055
0	4615	21531.739	630.556
0	4634	21610.463	678.425
0	4641	21676.526	743.894
0	4644	21693.273	742.969
0	4649	21710.008	739.076
0	4657	21786.057	790.352
0	4670	21882.607	875.113
0	4686	21963.864	911.182
0	4695	21985.496	900.367
0	4697	21987.801	868.462
0	4702	22001.89	839.5
0	4704	22002.348	817.266
0	4717	22076.722	884.487
0	4727	22176.997	895.125
0	4730	22184.402	834.038
0	4735	22201.191	793.554
0	4738	22212.27	789.369
0	4740	22214.789	720.757
0	4744	22221.635	676.799
0	4746	22224.018	677.026
0	4764	22307.52	729.64
0	4771	22349.759	771.619
0	4774	22366.831	771.355
0	4779	22405.894	754.352
0	4787	22446.028	743.444
0	4796	22510.314	706.544
0	4798	22512.363	698.285
0	4800	22516.017	697.369
0	4807	22544.107	724.904
0	4815	22558.71	663.79
0	4830	22660.832	755.685
0	4836	22692.803	755.704
0	4840	22700.438	761.49
0	4847	22705.314	750.51
0	4850	22712.973	747.765
0	4852	22714.653	746.847
0	4866	22784.822	808.191
0	4877	22876.891	880.031
0	4880	22912.854	839.907
0	4882	22915.674	820.159
0	4888	22930.582	762.952
0	4891	22941.056	671.926
0	4899	22972.345	693.125
0	4904	22998.235	698.229
0	4907	23014.692	705.062
0	4912	23033.596	612.654
0	4922	23083.314	593.961
0	4932	23168.775	667.49
0	4934	23171.521	643.156
0	4938	23194.206	646.204
0	4950	23281.235	711.366
0	4963	23350.52	728.556
0	4966	23358.513	732.841
0	4968	23362.721	736.447
0	4971	23369.337	689.453
0	4985	23427.928	734.402
0	4990	23473.432	771.48
0	4993	23478.857	753.639
0	4996	23492.125	760.916
0	5004	23532.718	728.822
0	5010	23543.846	680.69
0	5012	23545.096	585.491
0	5018	23559.417	516.022
0	5032	23612.935	566.145
0	5036	23650.611	523.999
0	5042	23677.929	519.847
0	5045	23690.424	430.926
0	5051	23705.114	439.481
0	5057	23711.223	429.181
0	5069	23790.297	491.691
0	5078	23831.794	532.003
0	5082	23839.553	490.348
0	5095	23898.761	488.052
0	5104	23946.389	533.599
0	5112	23991.213	495.432
0	5121	24011.012	477.98
0	5125	24035.332	478.219
0	5127	24041.041	476.315
0	5135	24066.869	471.65
0	5143	24086.189	478.364
0	5149	24108.013	437.048
0	5155	24147.485	454.994
0	5159	24151.523	444.348
0	5164	24170.114	409.364
0	5172	24190.548	401.214
0	5184	24254.258	445.92
0	5188	24260.208	433.38
0	5191	24264.822	428.592
0	5196	24275.993	427.544
0	5204	24322.296	452.513
0	5212	24394.096	497.953
0	5217	24411.697	507.225
0	5222	24426.125	519.941
0	5228	24462.711	514.345
0	5238	24513.385	555.679
0	5241	24530.492	533.192
0	5251	24587.926	582.658
0	5256	24596.676	543.572
0	5264	24629.091	555.965
0	5266	24629.866	555.567
0	5270	24641.222	552.167
0	5281	24676.279	524.891
0	5286	24687.751	516.06
0	5293	24738.056	551.595
0	5296	24768.61	550.392
0	5304	24813.36	565.371
0	5308	24827.472	569.947
0	5316	24864.847	599.899
0	5320	24870.174	495.078
0	5330	24905.019	496.301
0	5333	24910.267	472.233
0	5345	24995.348	520.949
0	5351	25028.447	516.565
0	5355	25042.512	472.272
0	5359	25048.889	476.5
0	5366	25077.385	488.743
0	5371	25085.511	462.356
0	5388	25223.095	580.466
0	5393	25241.604	592.622
0	5396	25255.188	569.054
0	5406	25284.673	493.576
0	5413	25290.28	469.647
0	5415	25294.617	434.132
0	5426	25349.654	479.985
0	5430	25363.125	491.101
0	5439	25430.489	555.863
0	5443	25452.23	535.703
0	5457	25502.397	585.656
0	5463	25555.123	535.682
0	5469	25585.445	541.974
0	5477	25628.666	558.854
0	5479	25633.732	472.295
0	5481	25639.749	452.402
0	5486	25655.175	460.372
0	5489	25662.245	461.558
0	5491	25667.038	433.554
0	5507	25744.943	468.596
0	5517	25813.795	533.677
0	5522	25842.71	557.209
0	5529	25869.387	579.241
0	5537	25891.48	586.995
0	5549	25947.341	596.678
0	5552	25970.549	548.326
0	5557	25996.206	541.118
0	5563	26046.853	588.831
0	5575	26095.777	626.736
0	5580	26107.659	635.38
0	5583	26114.813	594.182
0	5596	26255.635	690.458
0	5601	26279.435	678.259
0	5610	26306.513	632.595
0	5616	26338.3	594.326
0	5621	26360.907	598.217
0	5626	26386.826	605.996
0	5633	26407.562	565.081
0	5637	26438.954	574.473
0	5641	26459.952	587.83
0	5650	26478.705	598.795
0	5653	26503.004	592.189
0	5661	26531.582	612.287
0	5665	26544.971	616.098
0	5669	26575.229	506.697
0	5675	26631.358	562.733
0	5683	26654.274	579.979
0	5685	26659.46	582.222
0	5701	26732.903	626.315
0	5704	26741.237	532.185
0	5706	26756.61	524.124
0	5712	26773.796	506.176
0	5717	26778.058	481.588
0	5731	26838.669	540.175
0	5738	26895.477	576.371
0	5743	26919.007	547.615
0	5748	26951.129	475.512
0	5754	26990.31	512.957
0	5762	27024.152	507.65
0	5766	27045.93	402.811
0	5775	27067.237	423.955
0	5779	27069.77	392.831
0	5786	27113.104	433.851
0	5794	27120.811	435.655
0	5797	27135.472	412.584
0	5805	27171.266	395.524
0	5807	27179.516	357.543
0	5812	27199.55	377.178
0	5814	27199.698	370.764
0	5828	27315.013	431.791
0	5830	27319.866	405.484
0	5836	27324.37	358.384
0	5841	27334.989	334.059
0	5849	27397.128	346.679
0	5858	27452.947	396.428
0	5861	27477.967	410.371
0	5868	27516.875	426.987
0	5875	27563.66	446.316
0	5882	27579.649	415.304
0	5885	27581.305	303.246
0	5893	27597.964	309.946
0	5911	27693.933	371.902
0	5914	27711.407	385.44
0	5919	27747.28	344.369
0	5922	27752.082	330.948
0	5924	27752.578	246.845
0	5926	27752.852	197.368
0	5931	27760.457	189.294
0	5941	27793.78	222.451
0	5948	27809.648	227.047
0	5954	27835.281	242.61
0	5963	27929.106	312.682
0	5965	27935.139	292.135
0	5976	27998.63	349.324
0	5979	28003.946	340.258
0	5985	28032.592	274.735
0	5988	28042.01	244.847
0	5997	28088.952	276.303
0	6003	28106.716	252.303
0	6006	28121.393	163.013
0	6015	28149.022	185.761
0	6023	28185.252	157.044
0	6027	28199.566	152.178
0	6037	28233.643	130.194
0	6042	28306.583	168.118
0	6050	28332.421	183.579
0	6053	28343.237	183.977
0	6068	28436.604	237.352
0	6071	28446.703	215.151
0	6073	28448.243	127.516
0	6078	28480.3	157.036
0	6090	28521.842	110.335
0	6097	28561.787	143.396
0	6099	28562.161	132.086
0	6112	28655.504	219.598
0	6121	28712.287	221.47
0	6127	28747.447	252.102
0	6131	28775.679	228.927
0	6139	28803.619	212.963
0	6142	28813.879	217.261
0	6145	28823.271	175.797
0	6159	28866.011	185.799
0	6163	28868.609	157.109
0	6180	28956.714	237.608
0	6182	28961.967	177.503
0	6188	28971.211	134.516
0	6206	29047.251	184.034
0	6213	29093.988	229.33
0	6222	29124.255	257.161
0	6224	29129.46	241.475
0	6230	29163.395	261.762
0	6234	29173.982	267.446
0	6236	29176.273	269.42
0	6239	29178.356	225.904
0	6251	29226.667	260.691
0	6265	29367.314	381.983
0	6274	29395.345	396.282
0	6278	29401.386	396.602
0	6280	29407.31	373.203
0	6292	29486.651	442.327
0	6296	29496.077	446.953
0	6299	29500.269	423.608
0	6309	29569.764	475.128
0	6314	29612.357	502.263
0	6319	29626.489	439.398
0	6326	29702.508	460.044
0	6328	29705.975	452.292
0	6331	29720.346	448.691
0	6340	29757.091	456.406
0	6343	29762.448	386.108
0	6345	29765.344	387.413
0	6349	29772.888	384.24
0	6356	29818.603	394.367
0	6375	29914.602	419.181
0	6386	30002.124	501.202
0	6388	30003.412	383.644
0	6396	30032.055	301.064
0	6399	30038.339	202.709
0	6405	30071.731	230.341
0	6409	30085.066	234.168
0	6413	30095.154	241.151
0	6423	30134.653	249.34
0	6440	30257.347	368.572
0	6449	30313.422	363.158
0	6454	30336.674	370.559
0	6460	30387.508	370.316
0	6462	30388.003	368.283
0	6468	30428.995	326.104
0	6471	30435.256	306.368
0	6476	30468.631	280.81
0	6482	30480.114	291.931
0	6486	30503.656	300.169
0	6488	30510.081	291.619
0	6498	30533.016	312.935
0	6511	30600.684	330.978
0	6518	30635.53	357.447
0	6522	30649.238	329.079
0	6527	30688.137	212.842
0	6538	30721.587	202.354
0	6540	30722.708	199.521
0	6543	30731.238	185.325
0	6552	30766.239	192.228
0	6559	30782.965	171.131
0	6564	30816.087	200.77
0	6566	30816.628	127.93
0	6570	30819.019	116.166
0	6594	30930.194	219.214
0	6599	30953.658	219.425
0	6603	30968.835	210.927
0	6611	31007.146	188.218
0	6617	31033.572	196.183
0	6623	31053.789	213.954
0	6627	31078.003	212.641
0	6634	31106.978	226.388
0	6646	31168.84	283.594
0	6650	31172.922	280.112
0	6655	31182.57	282.808
0	6661	31194.674	259.983
0	6672	31334.006	351.105
0	6677	31376.042	362.851
0	6682	31380.987	343.196
0	6693	31423.51	322.63
0	6695	31425.392	317.302
0	6697	31426.2	312.949
0	6699	31427.944	259.171
0	6713	31459.591	290.414
0	6715	31462.676	283.43
0	6723	31495.847	308.905
0	6731	31556.615	209.715
0	6738	31607.338	230.25
0	6742	31639.897	252.26
0	6745	31651.076	255.48
0	6751	31665.149	227.503
0	6753	31666.64	221.307
0	6756	31672.54	225.428
0	6766	31720.071	220.611
0	6777	31792.264	217.114
0	6789	31851.701	195.392
0	6791	31854.866	119.546
0	6800	31900.481	126.15
0	6803	31917.711	128.87
0	6818	31955.899	152.177
0	6823	31966.148	129.841
0	6826	31968.98	121.628
0	6846	32036.094	137.909
0	6850	32062.042	134.843
0	6867	32168.949	240.867
0	6870	32197.794	263.396
0	6874	32206.997	263.217
0	6886	32251.261	303.598
0	6889	32257.562	299.886
0	6892	32278.343	306.653
0	6896	32285.022	307.699
0	6902	32325.005	317.893
0	6906	32338.976	325.779
0	6928	32420.457	390.658
0	6931	32428.575	397.231
0	6940	32463.279	391.376
0	6943	32469.394	396.214
0	6945	32475.101	373.125
0	6949	32480.822	369.579
0	6964	32537.989	403.073
0	6969	32569.29	364.555
0	6977	32615.265	397.819
0	6981	32641.112	394.224
0	6984	32652.157	310.311
0	6987	32663.708	297.709
0	7008	32761.8	381.986
0	7011	32769.662	374.331
0	7015	32807.271	405.098
0	7021	32855.923	445.891
0	7023	32862.01	448.991
0	7029	32896.006	455.435
0	7031	32901.666	443.335
0	7045	32993.081	513.16
0	7053	33048.463	563.993
0	7055	33049.536	545.73
0	7080	33195.468	647.703
0	7089	33247.32	663.435
0	7092	33276.282	612.461
0	7097	33304.742	629.222
0	7100	33314.437	629.397
0	7106	33331.019	608.497
0	7110	33342.295	618.787
0	7112	33347.09	618.281
0	7120	33364.576	438.244
0	7129	33418.986	486.642
0	7135	33431.169	447.425
0	7141	33467.212	421.005
0	7144	33470.695	419.906
0	7151	33499.276	414.086
0	7158	33527.385	426.708
0	7176	33605.271	491.917
0	7183	33632.453	509.044
0	7188	33662.475	502.74
0	7192	33695.078	504.275
0	7195	33709.051	516.823
0	7198	33717.425	515.742
0	7208	33749.543	526.665
0	7212	33762.081	435.691
0	7223	33786.432	427.706
0	7231	33838.739	453.185
0	7236	33848.42	417.697
0	7239	33866.092	405.613
0	7243	33884.176	398.24
0	7250	33911.135	403.982
0	7256	33924.249	382.18
0	7259	33945.109	387.963
0	7268	34000.586	436.335
0	7270	34001.751	423.251
0	7279	34070.15	473.951
0	7289	34096.939	468.396
0	7292	34107.239	475.207
0	7309	34167.698	447.464
0	7314	34192.86	461.715
0	7318	34200.92	434.411
0	7333	34354.264	582.867
0	7336	34369.992	584.31
0	7338	34375.592	558.089
0	7340	34377.684	533.398
0	7345	34382.108	459.409
0	7365	34460.886	470.751
0	7387	34569.459	564.006
0	7390	34583.912	510.335
0	7403	34627.379	547.899
0	7406	34632.785	536.677
0	7411	34639.677	530.116
0	7421	34696.857	557.754
0	7428	34732.861	588.481
0	7452	34838.228	684.595
0	7466	34932.127	772.817
0	7469	34958.887	788.958
0	7472	34977.052	746.578
0	7488	35051.774	791.634
0	7491	35073.625	783.472
0	7497	35099.835	720.443
0	7507	35149.897	762.791
0	7514	35193.015	799.989
0	7519	35262.137	851.85
0	7524	35275.818	855.403
0	7528	35290.378	827.606
0	7537	35324.314	858.064
0	7541	35335.536	869.012
0	7553	35365.432	894.013
0	7560	35394.314	884.687
0	7566	35429.812	905.636
0	7575	35466.856	919.84
0	7587	35504.934	952.838
0	7592	35525.76	941.314
0	7594	35527.366	940.322