version 2
run General-0-20220125-00:41:14-15760
attr configname General
attr datetime 20220125-00:41:14
attr experiment General
attr inifile omnetpp.ini
attr iterationvars ""
attr iterationvarsf ""
attr measurement ""
attr network PolicyB
attr processid 15760
attr repetition 0
attr replication #0
attr resultdir results
attr runnumber 0
attr seedset 0

vector 0 PolicyB.queue5 "time spent on the queue" ETV
attr interpolationmode none
vector 1 PolicyB.queue5 "queue size after modification" ETV
attr interpolationmode none
vector 2 PolicyB.queue3 "time spent on the queue" ETV
attr interpolationmode none
vector 3 PolicyB.queue3 "queue size after modification" ETV
attr interpolationmode none
vector 4 PolicyB.queue4 "time spent on the queue" ETV
attr interpolationmode none
vector 5 PolicyB.queue4 "queue size after modification" ETV
attr interpolationmode none
vector 6 PolicyB.queue2 "time spent on the queue" ETV
attr interpolationmode none
vector 7 PolicyB.queue2 "queue size after modification" ETV
attr interpolationmode none
vector 8 PolicyB.queue0 "time spent on the queue" ETV
attr interpolationmode none
vector 9 PolicyB.queue0 "queue size after modification" ETV
attr interpolationmode none
vector 10 PolicyB.queue3 "processing time with client order" ETV
attr interpolationmode none
vector 11 PolicyB.queue4 "processing time with client order" ETV
attr interpolationmode none
vector 12 PolicyB.queue5 "processing time with client order" ETV
attr interpolationmode none
vector 13 PolicyB.queue2 "processing time with client order" ETV
attr interpolationmode none
vector 14 PolicyB.queue9 "time spent on the queue" ETV
attr interpolationmode none
vector 15 PolicyB.queue9 "queue size after modification" ETV
attr interpolationmode none
vector 16 PolicyB.queue0 "processing time with client order" ETV
attr interpolationmode none
vector 17 PolicyB.queue7 "time spent on the queue" ETV
attr interpolationmode none
vector 18 PolicyB.queue7 "queue size after modification" ETV
attr interpolationmode none
vector 19 PolicyB.queue9 "processing time with client order" ETV
attr interpolationmode none
vector 20 PolicyB.queue6 "time spent on the queue" ETV
attr interpolationmode none
vector 21 PolicyB.queue6 "queue size after modification" ETV
attr interpolationmode none
vector 22 PolicyB.queue1 "time spent on the queue" ETV
attr interpolationmode none
vector 23 PolicyB.queue1 "queue size after modification" ETV
attr interpolationmode none
vector 24 PolicyB.queue7 "processing time with client order" ETV
attr interpolationmode none
vector 25 PolicyB.queue8 "time spent on the queue" ETV
attr interpolationmode none
vector 26 PolicyB.queue8 "queue size after modification" ETV
attr interpolationmode none
vector 27 PolicyB.queue8 "processing time with client order" ETV
attr interpolationmode none
vector 28 PolicyB.queue1 "processing time with client order" ETV
attr interpolationmode none
vector 29 PolicyB.queue6 "processing time with client order" ETV
attr interpolationmode none
0	2	0	0
0	88	449.45	0
0	140	606.492	0
0	239	833.478	0
0	263	896.31	54.582
0	316	1122.537	0
0	454	1528.124	148.203
0	536	1738.46	250.911
0	561	1814.608	0
0	670	2052.055	196.987
0	746	2334.104	0
0	769	2383.307	0
0	823	2523.727	82.673
0	871	2706.084	0
0	889	2795.381	0
0	960	3028.305	0
0	996	3156.035	0
0	1049	3357.709	0
0	1087	3497.243	31.019
0	1145	3636.522	54.772
0	1178	3698.657	0
0	1377	4352.053	473.694
0	1585	4923.394	136.845
0	1614	4987.867	0
0	1657	5098.178	5.357
0	1789	5456.087	0
0	1849	5575.049	93.424
0	1871	5648.594	0
0	1930	5789.432	137.097
0	2000	5972.165	228.538
0	2088	6266.778	322.495
0	2101	6305.797	214.258
0	2119	6354.969	0
0	2141	6443.793	49.97
0	2204	6578.95	134.702
0	2219	6617.349	0
0	2306	6857.962	0
0	2349	7009.994	0
0	2406	7211.574	0
0	2438	7329.978	0
0	2637	8014.816	0
0	2691	8242.373	0
0	2797	8577.08	0
0	2834	8699.924	0
0	2927	9030.469	0
0	2961	9079.188	23.475
0	3127	9533.167	75.73
0	3157	9641.14	72.505
0	3230	9835.487	191.998
0	3347	10143	301.454
0	3363	10205.112	286.764
0	3448	10389.343	274.839
0	3536	10610.085	398.416
0	3594	10767.325	333.556
0	3626	10849.562	168.393
0	3732	11135.152	301.456
0	3784	11280.733	417.573
0	3800	11334.177	190.097
0	3930	11657.323	405.127
0	4048	11996.037	656.834
0	4082	12072.507	686.674
0	4117	12134.07	296.88
0	4290	12661.63	653.352
0	4312	12748.287	592.56
0	4365	12899.62	142.064
0	4481	13186.858	369.747
0	4522	13304.039	307.246
0	4613	13622.779	273.814
0	4791	14034.897	657.738
0	4906	14274.798	210.62
0	4982	14419.915	84.432
0	5025	14505.711	52.64
0	5102	14709.186	70.886
0	5173	14935.852	200.63
0	5258	15249.745	0
0	5265	15319.329	0
0	5314	15447.461	0
0	5367	15645.795	0
0	5418	15796.991	0
0	5490	16010.827	30.018
0	5561	16258.585	246.083
0	5613	16371.086	195.117
0	5625	16401.095	127.951
0	5694	16598.713	189.166
0	5822	16975.62	477.694
0	5876	17054.548	428.814
0	5929	17225.611	71.202
0	6053	17614.707	361.713
0	6086	17691.287	50.452
0	6126	17783.224	117.312
0	6144	17838.02	30.469
0	6258	18248.879	372.35
0	6451	18764.789	767.009
0	6471	18843.646	372.597
0	6488	18879.253	80.112
0	6638	19302.857	446.233
0	6656	19351.751	405.993
0	6699	19401.282	308.102
0	6720	19454.443	96.994
0	6751	19520.049	129.982
0	6778	19632.002	0
0	6823	19755.434	0
0	6984	20195.81	170.776
0	7016	20273.263	0
0	7066	20336.712	21.001
0	7143	20569.908	0
0	7195	20739.768	0
0	7251	20968.087	0
0	7290	21111.697	0
0	7447	21551.198	139.412
0	7665	22160.761	573.395
0	7765	22461.993	288.038
0	7951	23079.896	0
0	7975	23128.402	0
0	8072	23377.21	1.956
0	8137	23537.913	0
0	8272	23949.341	0
0	8367	24187.689	0
0	8410	24330.541	63.34
0	8451	24490.893	0
0	8525	24757.622	0
0	8548	24841.91	0
0	8608	25097.571	0
0	8632	25175.757	0
0	8748	25517.484	229.893
0	8818	25690.894	171.565
0	8854	25814.352	171.478
0	8876	25849.345	77.051
0	9008	26177.146	355.516
0	9182	26604.845	721.745
0	9232	26736.988	546.534
0	9322	26994.712	305.542
0	9458	27291.344	285.923
0	9511	27418.308	72.608
0	9535	27480.319	54.787
0	9552	27515.697	4.473
0	9627	27724.293	200.819
0	9650	27769.148	195.985
0	9685	27853.521	0
0	9827	28226.227	103.186
0	9877	28359.408	0
0	9923	28457.687	51.536
0	9965	28571.137	59.31
0	9995	28631.676	43.206
0	10016	28691.196	0
0	10067	28796.02	60.268
0	10101	28894.375	68.204
0	10136	29014.205	0
0	10206	29246.452	0
0	10260	29435.715	0
0	10323	29628.317	6.761
0	10365	29704.364	0
0	10454	30010.326	0
0	10479	30120.39	0
0	10512	30177.697	0
0	10556	30337.178	0
0	10641	30729.031	279.703
0	10707	30925.774	0
0	10778	31159.919	0
0	10929	31640.291	191.188
0	10973	31775.805	15.872
0	11011	31898.748	28.235
0	11085	32069.872	0
0	11116	32159.332	27.604
0	11180	32362.394	0
0	11214	32467.773	0
0	11246	32516.187	48.079
0	11320	32671.547	71.884
0	11401	32902.798	228.252
0	11432	32964.941	34.329
0	11613	33572.176	516.995
0	11657	33682.059	207.206
0	11698	33807.296	185.398
0	11732	33893.658	5.569
0	11800	34031.029	121.009
0	11953	34386.138	0
0	12070	34716.25	0
0	12101	34821.503	34.334
0	12216	35184.916	0
0	12243	35316.903	0
0	12307	35527.436	0
0	12356	35634.735	0
0	12406	35851.128	0
0	12458	35988.199	0
0	12540	36274.324	0
0	12583	36384.278	0
0	12610	36564.596	0
0	12631	36640.909	0
0	12672	36760.829	103.607
0	12702	36802.592	0
0	12875	37294.2	380.089
0	12927	37442.6	36.662
0	12982	37639.107	0
0	13018	37742.505	0
0	13110	38003.883	0
0	13235	38385.844	151.569
0	13340	38706.572	251.614
0	13493	39234.165	136.939
0	13529	39292.766	0
0	13696	39846.879	547.504
0	13763	40066.483	547.22
0	13845	40253.301	396.158
0	13877	40301.004	18.308
0	13970	40530.767	197.166
0	14153	41038.387	485.178
0	14189	41125.613	568.424
0	14237	41275.167	210.367
0	14326	41484.469	299.604
0	14370	41567.977	277.681
0	14390	41606.895	102.86
0	14422	41674.127	126.138
0	14471	41833.491	225.545
0	14495	41941.53	261.208
0	14535	42038.531	351.012
0	14589	42148.016	372.04
0	14736	42577.128	605.972
0	14761	42633.592	587.75
0	14821	42774.819	680.359
0	14871	42896.77	648.236
0	14942	43093.392	449.157
0	14982	43187.108	483.287
0	15016	43292.087	404.92
0	15042	43344.94	210.976
0	15170	43623.419	358.845
0	15298	43962.92	627.849
0	15406	44190.253	806.402
0	15435	44280.3	860.925
0	15550	44574.838	587.13
0	15565	44609.077	314.424
0	15580	44662.97	179.986
0	15595	44693.951	63.147
0	15644	44877.794	229.367
0	15718	45091.6	378.5
0	15741	45137.058	329.909
0	15775	45254.119	335.625
0	15985	45783.176	615.472
0	16044	45931.398	622.968
0	16155	46259.834	0
0	16225	46501.925	0
0	16278	46667.378	0
0	16325	46777.383	0
0	16415	47013.248	194.884
0	16464	47115.03	152.62
0	16532	47240.094	89.675
0	16568	47332.446	30.176
0	16637	47577.714	183.604
0	16728	47856.834	0
0	16808	48086.834	0
0	16867	48308.689	216.456
0	16906	48419.855	0
0	17017	48692.84	267.51
0	17046	48741.047	23.793
0	17086	48827.59	19.47
0	17213	49196.158	319.746
0	17330	49607.156	0
0	17356	49660.688	0
0	17479	49953.884	113.717
0	17503	50016.34	74.059
0	17536	50176.448	106.132
0	17565	50229.898	84.209
0	17732	50585.885	222.535
0	17897	50915.828	307.907
0	17932	51007.178	82.168
0	18157	51729.788	691.886
0	18266	52004.489	437.958
0	18334	52197.412	154.797
0	18496	52661.63	452.288
0	18587	52904.289	183.636
0	18636	53053.534	85.028
0	18659	53097.345	32.593
0	18847	53539.139	404.058
0	18993	53861.248	595.214
0	19028	53935.249	0
0	19062	54038.824	0
0	19091	54191.421	0
0	19139	54277.121	0
0	19187	54411.303	52.815
0	19254	54595.216	130.029
0	19269	54661.678	38.829
0	19295	54738.645	11.189
0	19324	54822.961	57.384
0	19375	54886.678	0
0	19456	55043.715	100.794
0	19504	55204.348	135.014
0	19528	55275.391	41.447
0	19572	55401.212	94.334
0	19642	55550.799	0
0	19748	55830.409	0
0	19763	55868.374	35.051
0	19833	56095.762	0
0	19863	56169.435	0
0	19952	56421.812	0
0	20112	56919.61	239.368
0	20139	56989.063	0
0	20204	57156.816	19.912
0	20361	57597.187	233.427
0	20382	57671.381	0
0	20542	58133.23	0
0	20568	58179.996	0
0	20671	58518.568	0
0	20699	58611.369	0
0	20778	58875.848	201.478
0	20821	59020.988	42.371
0	20858	59108.488	0
0	20935	59311.626	131.483
0	20999	59473.561	0
0	21046	59577.654	59.798
0	21068	59684.308	0
0	21105	59756.601	0
0	21149	59863.513	29.642
0	21224	60045.111	159.329
0	21255	60115.766	0
0	21305	60225.718	0
0	21338	60346.878	0
0	21472	60750.028	400.59
0	21502	60837.952	0
0	21573	61015.272	130.88
0	21619	61130.044	96.127
0	21832	61642.25	452.769
0	22000	62075.514	416.471
0	22017	62119.184	0
0	22090	62317.878	122.976
0	22120	62398.383	0
0	22201	62564.909	0
0	22374	63106.45	0
0	22458	63354.183	0
0	22476	63408.732	0
0	22528	63640.906	0
0	22687	64103.299	0
0	22725	64223.06	50.982
0	22831	64499.937	221.343
0	22884	64654.284	0
0	22919	64736.956	0
0	23027	64967.864	86.668
0	23243	65490.425	480.833
0	23278	65592.502	478.336
0	23343	65759.151	266.424
0	23412	65968.889	354.688
0	23473	66165.068	291.554
0	23497	66251.379	74.487
0	23562	66451.432	194.593
0	23647	66803.12	327.05
0	23674	66897.922	205.834
0	23823	67312.6	440.727
0	23910	67538.279	186.875
0	23942	67619.595	80.612
0	23983	67784.51	57.33
0	23997	67851.425	44.411
0	24107	68130.203	263.563
0	24184	68288.637	0
0	24251	68509.566	0
0	24290	68606.146	0
0	24381	68916.513	204.173
0	24413	68997.719	44.845
0	24459	69159.563	0
0	24485	69219.275	0
0	24553	69440.312	0
0	24648	69748.073	291.885
0	24662	69778.294	9.556
0	24725	70035.052	233.459
0	24778	70219.732	0
0	24902	70626.934	239.529
0	24950	70725.983	0
0	24984	70864.303	0
0	25015	70975.012	0
0	25158	71409.67	57.658
0	25180	71491.391	0
0	25233	71660.461	0
0	25260	71742.589	0
0	25320	71938.882	131.488
0	25455	72430.5	95.95
0	25492	72496.18	43.471
0	25538	72634.33	3.971
0	25630	72870.858	183.425
0	25658	72998.291	0
0	25711	73207.096	0
0	25752	73371.08	0
0	25872	73732.045	0
0	26003	74051.268	0
0	26053	74160.076	0
0	26133	74468.203	0
0	26303	74979.085	93.275
0	26355	75193.712	2.592
0	26546	75722.437	0
0	26585	75856.776	0
0	26640	76043.589	0
0	26741	76334.318	54.649
0	26781	76467.641	0
0	26895	76727.363	70.294
0	26931	76831.324	0
0	27038	77105.912	0
0	27063	77185.684	0
0	27085	77250.926	0
0	27139	77447.168	181.738
0	27174	77551.587	0
0	27266	77880.508	0
0	27321	78014.695	0
0	27455	78288.757	175.178
0	27620	78648.691	349.024
0	27871	79434.274	650.973
0	28020	79819.655	814.254
0	28077	79970.825	334.606
0	28100	80023.373	196.131
0	28349	80678.333	701.558
0	28430	80894.031	821.551
0	28507	81078.645	608.305
0	28616	81315.874	440.954
0	28793	81769.811	688.469
0	28825	81840.7	61.003
0	28996	82341.442	500.704
0	29104	82637.007	773.986
0	29182	82805.764	455.639
0	29220	82904.049	0
0	29299	83127.683	172.336
0	29371	83305.14	163.319
0	29389	83340.811	23.083
0	29500	83719.559	376.196
0	29665	84125.47	602.398
0	29745	84373.906	408.929
0	29786	84464.224	71.581
0	29813	84532.43	21.191
0	29822	84572.351	28.711
0	29888	84717.604	121.982
0	29915	84759.567	150.858
0	30032	85073.762	353.036
0	30095	85195.797	402.602
0	30174	85374.286	226.117
0	30226	85510.481	305.967
0	30292	85690.644	158.763
0	30320	85771.786	63.542
0	30384	85929.23	144.667
0	30406	85984.173	175.837
0	30438	86060.435	0
0	30540	86293.267	180.372
0	30588	86403.26	0
0	30678	86625.674	169.383
0	30889	87165.588	0
0	30947	87339.272	0
0	30994	87457.357	0
0	31039	87572.336	27.733
0	31111	87733.81	0
0	31157	87907.302	0
0	31212	88084.712	0
0	31300	88351.167	10.672
0	31327	88415.631	0
0	31445	88713.392	0
0	31471	88794.267	0
0	31508	88903.51	0
0	31564	89006.449	90.084
0	31626	89169.536	0
0	31715	89419.085	108.635
0	31761	89544.589	0
0	31818	89672.606	89.893
0	31852	89753.828	0.134
0	31912	89850.962	43.407
0	31966	89969.556	75.74
0	31992	90076.268	82.503
0	32025	90136.103	5.664
0	32042	90182.994	17.666
0	32080	90251.614	0
0	32153	90499.536	159.23
0	32182	90567.112	0
0	32308	90876.069	292.635
0	32366	91011.867	0
0	32382	91048.651	2.74
0	32403	91088.213	0
0	32487	91291.066	139.911
0	32574	91504.344	63.9
0	32819	92222.412	693.228
0	32856	92301.503	742.44
0	32905	92419.109	73.629
0	33182	93264.891	806.316
0	33194	93324.553	773.578
0	33242	93447.504	0
0	33265	93492.958	0
0	33289	93617.553	0
0	33310	93685.14	0
0	33350	93804.898	0
0	33423	93964.112	64.514
0	33487	94101.25	57.702
0	33510	94200.053	0
0	33611	94399.518	179.614
0	33757	94770.884	298.509
0	33788	94830.453	51.263
0	33829	94979.899	112.653
0	33854	95029.985	0
0	33924	95188.584	137.035
0	34041	95561.128	366.752
0	34102	95727.879	152.346
0	34276	96146.663	467.384
0	34307	96218.996	467.548
0	34376	96396.968	200.145
0	34493	96737.234	408.031
0	34643	97156.651	716.687
0	34904	97892.241	1146.87
0	35112	98459.588	1692.388
0	35178	98635.577	0
0	35296	99057.897	248.018
0	35329	99154.377	0
0	35374	99293.347	0
0	35501	99655.583	0
0	35560	99837.068	45.734
0	35585	99879.105	32.401
0	35656	100094.719	192.756
0	35682	100151.333	0
0	35765	100385.689	32.437
0	35873	100727.772	0
0	35941	100930.662	0
0	35962	100973.002	7.563
0	36008	101106.901	0
0	36051	101208.085	0
0	36076	101293.935	0
0	36169	101555.876	0
0	36209	101658.149	0
0	36279	101814.876	86.946
0	36314	101951.056	0
0	36357	102066.526	0
0	36402	102207.166	0
0	36493	102402.629	100.559
0	36514	102484.954	0
0	36531	102549.013	0
0	36562	102655.646	0
0	36627	102855.365	0
0	36700	103099.053	0
0	36742	103218.455	0
0	36912	103694.535	188.709
0	36947	103746.087	87.07
0	37020	103873.326	143.489
0	37030	103914.841	33.304
0	37072	104025.711	66.444
0	37203	104346.054	314.928
0	37374	104852.452	659.281
0	37442	105043.081	605.643
0	37468	105077.797	490.039
0	37623	105479.172	432.224
0	37654	105522.812	374.111
0	37733	105780.053	284.679
0	37894	106188.287	544.432
0	37944	106305.383	431.506
0	38023	106560.808	143.839
0	38138	106890.77	327.884
0	38241	107153.649	540.969
0	38275	107254.938	101.08
0	38334	107427.069	165.365
0	38354	107475.18	30.462
0	38392	107594.412	0
0	38452	107758.004	0
0	38503	107875.023	0
0	38703	108338.037	0
0	38805	108685.446	68.751
0	38825	108746.393	0
0	38845	108803.409	52.686
0	38866	108867.395	21.569
0	38903	108929.81	20.024
0	38927	108989.775	25.228
0	38952	109033.936	10.884
0	39002	109183.736	0
0	39050	109357.062	0
0	39137	109633.978	0
0	39186	109801.385	0
0	39271	110047.827	0
0	39298	110097.481	0
0	39329	110189.05	0
0	39894	111827.399	1050.954
0	40103	112381.402	218.833
0	40202	112627.844	223.328
0	40319	112929.023	213.009
0	40359	113002.672	0
0	40398	113106.063	33.1
0	40424	113189.919	0
0	40496	113405.563	120.561
0	40587	113625.296	171.478
0	40657	113810.32	0
0	40685	113892.849	0
0	40699	113931.419	0
0	40779	114159.22	0
0	40857	114415.631	0
0	40896	114530.31	0
0	40992	114781.674	178.959
0	41018	114845.101	56.228
0	41068	114941.362	0
0	41185	115168.43	173.61
0	41250	115300.289	17.803
0	41294	115400.276	0
0	41432	115804.109	135.379
0	41478	115939.439	0
0	41544	116210.989	0
0	41577	116301.446	0
0	41622	116396.74	0
0	41668	116554.86	0
0	41750	116876.576	245.992
0	41825	117093.284	0
0	41879	117311.516	0
0	41902	117384.376	0
0	41941	117506.257	24.272
0	42075	117928.865	162.407
0	42121	118040.902	0
0	42149	118103.617	0
0	42227	118332.793	70.191
0	42270	118437.294	0
0	42331	118587.328	78.413
0	42424	118831.813	76.944
0	42526	119054.904	207.799
0	42689	119457.684	238.74
0	42780	119722.843	218.825
0	42802	119760.934	219.172
0	42833	119814.424	34.906
0	42854	119874.205	13.718
0	42873	119908.916	0
0	42897	119949.113	28.436
0	42917	119996.027	26.718
0	42974	120094.546	73.314
0	43012	120211.361	103.91
0	43086	120419.234	164.161
0	43156	120628.084	0
0	43204	120722.446	0
0	43271	120939.809	0
0	43327	121181.495	0
0	43421	121474.582	133.01
0	43474	121604.857	84.551
0	43531	121752.907	66.352
0	43572	121885.88	0
0	43625	121998.644	105.934
0	43816	122486.109	0
0	43855	122592.012	18.999
0	43870	122637.881	0
0	43953	122877.193	0
0	43990	122992.611	0
0	44044	123156.911	0
0	44146	123557.983	0
0	44166	123658.32	0
0	44296	124219.07	0
0	44345	124329.125	0
0	44390	124458.684	0
0	44452	124636.424	0
0	44503	124873.74	0
0	44540	124959.283	0
0	44574	125035.669	7.742
0	44625	125154.819	0
0	44672	125321.662	0
0	44702	125427.691	0
0	44773	125688.528	0
0	44878	126053.925	0
0	44925	126214.103	130.275
0	45059	126660.945	370.159
0	45163	126928.813	552.629
0	45210	127039.698	290.502
0	45299	127259.081	258.209
0	45318	127295.254	227.985
0	45407	127510.236	26.74
0	45433	127551.636	31.298
0	45525	127765.799	134.773
0	45606	127936.34	92.41
0	45764	128480.819	538.671
0	45949	128942.546	456.546
0	45976	128993.224	454.725
0	46030	129199.37	246.31
0	46057	129259.102	197.066
0	46078	129307.456	88.372
0	46108	129382.854	140.837
0	46188	129541.499	223.7
0	46273	129810.365	405.482
0	46307	129909.648	126.176
0	46347	129947.021	114.109
0	46403	130072.711	155.568
0	46446	130184.698	235.779
0	46547	130439.702	254.202
0	46569	130523.573	294.687
0	46592	130587.921	0
0	46640	130680.636	10.122
0	46766	131013.937	322.507
0	46785	131049.721	7.416
0	46805	131102.97	52.336
0	46892	131335.052	0
0	46923	131419.072	0
0	47047	131687.682	0
0	47112	131930.022	0
0	47181	132183.608	9.54
0	47233	132340.079	77.857
0	47338	132656.349	192.746
0	47412	132862.271	0
0	47441	132960.763	0
0	47488	133100.663	104.601
0	47503	133135.653	0
0	47519	133184.681	0
0	47610	133452.159	144.617
0	47652	133572.02	0
0	47701	133711.811	0
0	47811	134020.996	208.666
0	47860	134147.438	0
0	48073	134765.785	0
0	48125	134955.446	0
0	48185	135107.722	0
0	48285	135503.376	0
0	48337	135803.062	0
0	48429	136081.507	0
0	48531	136369.908	0
0	48581	136591.197	0
0	48680	136934.427	0
0	48756	137166.996	0
0	48771	137213.876	0
0	48849	137377.779	160.21
0	48944	137705.581	0
0	48971	137802.852	0
0	49031	137985.522	0
0	49085	138136.629	88.722
0	49116	138244.367	0
0	49154	138353.332	0
0	49235	138640.676	188.308
0	49305	138817.473	0
0	49345	138901.952	0
0	49466	139279.727	350.943
0	49531	139452.895	124.298
0	49560	139548.409	78.248
0	49607	139722.423	157.888
0	49698	139938.42	0
0	49799	140206.292	0
0	49856	140361.6	64.1
0	49944	140578.639	0
0	50017	140761.26	138.467
0	50046	140870.486	9.543
0	50186	141273.921	388.663
0	50216	141340.555	392.112
0	50383	141747.7	272.526
0	50456	141923.902	201.508
0	50552	142184.555	364.302
0	50587	142298.229	241.143
0	50718	142671.021	334.619
0	50827	142969.34	600.247
0	50973	143304.664	557.756
0	50993	143375.052	239.919
0	51118	143755.905	374.825
0	51197	143935.922	155.298
0	51268	144177.256	0
0	51292	144255.444	0
0	51453	144646.305	284.17
0	51499	144800.444	179.407
0	51530	144846.339	38.185
0	51575	144952.464	47.896
0	51672	145191.463	219.381
0	51734	145352.2	147.269
0	51769	145446.304	3.486
0	51795	145510.106	36.628
0	51850	145653.371	0
0	51927	145859.035	154.149
0	51991	146031.133	256.67
0	52022	146111.132	241.362
0	52055	146195.638	141.882
0	52115	146347.423	110.757
0	52138	146394.208	131.348
0	52178	146500.333	142.35
0	52191	146548.133	32.492
0	52240	146689.679	117.053
0	52297	146855.191	103.985
0	52316	146904.098	0
0	52380	147045.384	0
0	52506	147418.877	227.986
0	52569	147536.237	91.092
0	52630	147665.886	63.489
0	52728	148009.181	329.496
0	52774	148096.553	413.064
0	52867	148382.697	333.667
0	52888	148485.126	373.707
0	52973	148650.862	451.196
0	53009	148724.965	58.863
0	53083	148881.378	152.837
0	53215	149300.598	503.462
0	53292	149607.97	0
0	53334	149723.466	0
0	53434	150085.395	0
0	53473	150237.267	0
0	53517	150431.271	0
0	53540	150476.706	0
0	53611	150635.838	134.613
0	53680	150884.493	0
0	53810	151304.66	0
0	53889	151487.332	0
0	53909	151585.051	0
0	53949	151720.618	13.067
0	53996	151814.244	0
0	54023	151925.226	0
0	54119	152286.458	150.423
0	54284	152777.404	278.121
0	54473	153376.235	747.101
0	54494	153447.557	453.301
0	54577	153665.137	357.522
0	54600	153709.439	186.757
0	54626	153769.643	184.824
0	54655	153866.231	106.335
0	54668	153899.123	135.829
0	54685	153939.734	134.839
0	55156	155154.191	1185.007
0	55240	155395.102	1422.44
0	55329	155600.023	150.579
0	55346	155653.312	0
0	55442	155925.552	199.449
0	55522	156130.164	124.209
0	55540	156211.51	0
0	55571	156333.968	0
0	55631	156505.93	45.032
0	55713	156711.072	182.485
0	55794	156944.613	213.28
0	55932	157259.749	299.978
0	56177	157948.648	682.102
0	56208	158020.896	611.972
0	56235	158076.398	99.543
0	56262	158140.774	27.931
0	56313	158262.198	81.442
0	56378	158450.496	0
0	56430	158672.832	154.202
0	56622	159182.947	205.639
0	56774	159727.168	0
0	56826	159863.946	0
0	56983	160277.385	0
0	57053	160480.739	108.08
0	57176	160889.33	46.692
0	57204	160987.016	0
0	57220	161050.83	0
0	57352	161420.066	328.359
0	57407	161545.376	116.41
0	57458	161696.626	137.347
0	57598	162169.947	415.945
0	57696	162419.989	211.458
0	57764	162583.309	58.115
0	57787	162619.422	0
0	57857	162790.553	0
0	57942	163145.171	0
0	58038	163513.756	0
0	58185	164105.933	0
0	58370	164698.444	75.959
0	58403	164809.984	0
0	58438	164919.903	0
0	58484	165035.392	0
0	58584	165443.394	0
0	58634	165610.29	0
0	58681	165732.341	0
0	58703	165837.848	0
0	58742	165978.988	0
0	58858	166347.227	0
0	58910	166571.505	172.495
0	58928	166614.586	40.509
0	58957	166693.758	25.712
0	58981	166731.373	33.367
0	59051	166930.746	175.973
0	59096	167055.325	0
0	59177	167273.558	197.097
0	59217	167443.693	0
0	59264	167548.832	0
0	59295	167628.893	0
0	59378	167862.716	0
0	59403	167951.553	0
0	59449	168026.1	0
0	59669	168617.747	587.606
0	59705	168662.704	8.651
0	59815	168875.592	198.596
0	59956	169264.393	372.835
0	59988	169362.749	198.836
0	60001	169399.454	46.513
0	60256	170098.64	675.135
0	60268	170128.679	661.593
0	60303	170266.591	491.493
0	60356	170370.019	90.556
0	60398	170441.49	64.208
0	60458	170605.492	154.738
0	60568	170899.192	212.424
0	60632	171131.994	158.058
0	60677	171276.272	164.403
0	60743	171410.478	83.939
0	60760	171462.655	116.316
0	60770	171497.775	75.879
0	60826	171706.672	197.215
0	60863	171766.82	211.052
0	61007	172120.183	408.189
0	61142	172456.22	566.607
0	61310	172965.546	930.166
0	61380	173071.2	399.378
0	61404	173124.071	150.155
0	61437	173202.483	145.769
0	61501	173324.663	109.269
0	61534	173388.624	70.383
0	61576	173593.112	189.172
0	61609	173686.821	224.737
0	61618	173719.268	138.007
0	61655	173761.658	33.042
0	61686	173856.926	120.412
0	61752	174029.634	142.567
0	61789	174128.135	141.979
0	61827	174207.215	113.142
0	61862	174306.095	96.402
0	61999	174617.159	284.24
0	62060	174787.184	0
0	62134	175112.463	0
0	62197	175315.706	99.083
0	62235	175447.631	0
0	62290	175614.187	0
0	62347	175821.318	0
0	62422	175994.533	0
0	62558	176405.863	0
0	62582	176500.402	0
0	62619	176579.068	0
0	62655	176688.582	0
0	62735	176852.431	145.754
0	62785	176962.914	0
0	62849	177118.974	0
0	62888	177214.362	0
0	62919	177291.19	0
0	62987	177569.21	0
0	63111	177924.969	0
0	63198	178207.334	0
0	63256	178355.972	0
0	63360	178684.846	0
0	63432	178884.481	179.551
0	63456	178935.509	0
0	63537	179146.729	0
0	63565	179207.937	0
0	63609	179313.565	0
0	63720	179601.48	80.144
0	63746	179650.01	0
0	63992	180343.533	574.437
0	64067	180560.678	381.076
0	64108	180621.644	60.678
0	64129	180706.862	53.6
0	64239	181023.677	72.451
0	64265	181106.265	43.768
0	64485	181640.888	327.418
0	64512	181695.163	327.8
0	64621	182031.787	332.798
0	64657	182074.794	367.88
0	64694	182181.914	0
0	64759	182448.041	8.422
0	64777	182492.285	0
0	64837	182637.14	0
0	64907	182827.143	0
0	64921	182877.265	0
0	64929	182935.282	9.616
0	64944	182985.672	14.099
0	65039	183209.621	92.893
0	65214	183631.737	421.176
0	65279	183763.249	165.358
0	65305	183828.231	0
0	65361	183993.865	117.016
0	65526	184314.8	306.244
0	65559	184416.72	0
0	65615	184552.186	0
0	65669	184690.337	0
0	65914	185486.135	29.784
0	65939	185537.916	0
0	66053	185846.889	0.804
0	66080	185952.685	96.803
0	66108	186002.684	0
0	66241	186345.734	93.331
0	66332	186650.522	0
0	66362	186747.538	0
0	66388	186807.438	3.689
0	66422	186914.577	0
0	66462	187003.407	0
0	66545	187283.418	0
0	66606	187500.306	0
0	66696	187736.916	0
0	66759	187898.504	0
0	66850	188189.262	0
0	66993	188648.497	0
0	67074	188854.755	0
0	67154	189120.617	0
0	67209	189329.756	0
0	67286	189608.322	0
0	67424	190145.063	0
0	67474	190321.252	0
0	67517	190452.651	0
0	67543	190496.329	0
0	67576	190621.751	0
0	67690	190889.842	184.873
0	67726	190996.622	31.074
0	67756	191065.275	36.925
0	67791	191139.847	100.255
0	67959	191627.645	448.26
0	67994	191761.037	0
0	68036	191933.052	0
0	68083	192039.182	0
0	68141	192207.927	0
0	68250	192664.532	0
0	68377	193111.524	375.706
0	68459	193289.551	0
0	68532	193473.689	0
0	68699	193956.295	430.738
0	68748	194093.887	131.994
0	68781	194206.663	12.801
0	68882	194450.492	26.683
0	68942	194573.456	0
0	69014	194741.229	0
0	69059	194829.951	0
0	69100	194894.177	0
0	69160	195088.846	74.709
0	69177	195125.472	28.847
0	69336	195524.76	214.88
0	69405	195735.268	0
0	69572	196171.625	0
0	69593	196263.919	0
0	69629	196339.16	60.968
0	69747	196534.642	0
0	69777	196581.943	39.992
0	69871	196983.269	0
0	69904	197122.324	0
0	69958	197223.913	19.724
0	70025	197361.898	0
0	70065	197440.887	0
0	70125	197654.223	0
0	70295	198128.413	384.676
0	70364	198406.267	0
0	70427	198551.129	0
0	70462	198653.474	0
0	70519	198805.878	0
0	70744	199536.61	0
0	70853	199903.064	0
0	70924	200066.341	0
0	70988	200243.552	0
0	71018	200314.676	0
0	71032	200363.34	0
0	71059	200428.248	0
0	71125	200678.149	0
0	71357	201565.583	0
0	71438	201890.937	0
0	71497	202078.504	0
0	71595	202410.872	0
0	71637	202574.947	0
0	71672	202633.876	0
0	71710	202751.731	111.604
0	71820	203069.88	13.438
0	71888	203364.979	210.071
0	71907	203403.282	193.576
0	72017	203665.872	0
0	72076	203942.017	0
0	72195	204302.063	145.997
0	72243	204398.164	0
0	72477	205124.128	370.528
0	72535	205272.233	110.824
0	72612	205531.761	0
0	72648	205693.773	0
0	72675	205820.052	0
0	72940	206798.936	494.483
0	73020	207016.703	360.313
0	73190	207467.871	314.189
0	73247	207593.842	54.312
0	73466	208296.346	697.065
0	73528	208470.894	0
0	73637	208811.847	112.554
0	73679	208923.088	0
0	73776	209181.432	243.811
0	74027	209850.836	658.574
0	74086	209978.428	0
0	74096	210018.406	11.242
0	74161	210196.481	89.829
0	74369	210767.912	532.707
0	74464	211033.453	774.526
0	74518	211155.321	58.108
0	74613	211433.431	272.471
0	74676	211596.236	0
0	74810	211962.46	352.442
0	74878	212120.708	0
0	74899	212166.368	0
0	74930	212237.693	0
0	74977	212376.355	0
0	75159	212951.772	0
0	75229	213189.639	0
0	75293	213462.373	0
0	75429	213917.195	0
0	75475	214030.88	0
0	75581	214319.176	0
0	75613	214406.825	0
0	75722	214665.616	0
0	75910	215244.234	0
0	75955	215367.249	0
0	76074	215685.692	0
0	76114	215794.684	56.868
0	76295	216209.928	413.515
0	76342	216391.495	160.148
0	76389	216528.917	0
0	76491	216802.008	178.856
0	76615	217156.458	162.418
0	76668	217270.478	27.734
0	76697	217374.472	87.623
0	76818	217683.174	274.136
0	76866	217824.42	406.08
0	76898	217884.183	98.19
0	76957	218048.137	216.377
0	77025	218264.291	398.266
0	77043	218306.844	215.803
0	77123	218498.319	178.619
0	77210	218754.322	228.357
0	77316	219043.801	339.111
0	77375	219148.491	324.939
0	77427	219355.327	256.353
0	77486	219459.603	100.789
0	77516	219545.024	29.364
0	77600	219753.273	49.365
0	77628	219848.448	0
0	77655	219921.191	0
0	77742	220207.821	0
0	77830	220509.847	0
0	77848	220556.89	0
0	77904	220729.135	0
0	77934	220799.597	0