version 2
run General-0-20220620-15:55:57-3944
attr configname General
attr datetime 20220620-15:55:57
attr experiment General
attr inifile omnetpp.ini
attr iterationvars $0=456
attr iterationvarsf 456-
attr measurement $0=456
attr network PolicyA
attr processid 3944
attr repetition 0
attr replication #0
attr resultdir results
attr runnumber 0
attr seedset 456

vector 0 PolicyA.queue "time spent on the queue" ETV
attr interpolationmode none
vector 1 PolicyA.queue "queue size after modification" ETV
attr interpolationmode none
vector 2 PolicyA.queue "client processing order" ETV
attr interpolationmode none
vector 3 PolicyA.queue "processing time with client order" ETV
attr interpolationmode none
vector 4 PolicyA.queue "till processing order" ETV
attr interpolationmode none
vector 5 PolicyA.queue "client total time in the till" ETV
attr interpolationmode none
vector 6 PolicyA.queue "queue size per minute" ETV
attr interpolationmode none
vector 7 PolicyA.source "number of clients entering the queue per timer interval" ETV
attr interpolationmode none
0	2	0	0
0	5	9.153	0
0	16	135.122	0
0	21	184.108	0
0	27	237.004	0
0	33	268.444	0
0	37	273.82	0
0	40	285.789	0
0	49	355.195	0
0	53	361.589	0
0	55	367.344	0
0	61	380.199	7.648
0	79	457.851	67.424
0	81	459.978	56.668
0	86	480.634	41.116
0	97	512.225	67.653
0	101	528.012	80.355
0	110	560.707	75.922
0	112	561.896	76.094
0	123	601.254	95.208
0	126	617.844	85.406
0	129	641.148	102.577
0	134	656.343	76.653
0	139	660.71	0
0	149	676.444	6.837
0	159	702.996	30.857
0	166	730.569	58.167
0	168	730.715	34.886
0	173	750.42	49.539
0	176	759.553	33.633
0	187	793.524	5.344
0	196	833.726	40.919
0	198	834.169	33.673
0	212	959.742	141.499
0	217	997.064	118.292
0	220	1018.613	134.773
0	230	1064.034	161.955
0	236	1093.421	34.162
0	242	1115.694	54.228
0	245	1125.354	32.316
0	251	1152.786	50.342
0	262	1207.852	27.955
0	265	1235.677	48.959
0	277	1278.048	0
0	286	1350.545	0
0	289	1356.819	0
0	291	1358.162	0
0	297	1387.028	0
0	308	1478.244	89.822
0	310	1483.849	46.251
0	318	1519.966	16.749
0	326	1554.018	0
0	328	1555.023	0
0	338	1575.966	0
0	340	1579.224	0
0	351	1627.91	0
0	360	1686.807	29.304
0	363	1711.779	51.926
0	373	1808.544	40.603
0	384	1886.577	0
0	389	1909.884	0
0	398	1985.191	0
0	400	1989.207	0
0	408	2014.955	0
0	412	2027.856	0
0	416	2038.033	0
0	428	2103.286	0
0	433	2124.121	0
0	441	2145.392	0
0	444	2153.286	0
0	449	2176.099	0
0	456	2214.8	37.115
0	467	2281.074	37.028
0	469	2284.835	37.851
0	477	2293.391	6.504
0	479	2296.588	6.733
0	496	2353.549	27.564
0	499	2378.557	51.798
0	503	2385.786	48.743
0	511	2415.761	73.813
0	519	2468.321	63.433
0	524	2488.877	52.152
0	526	2491.758	14.516
0	534	2504.333	5.937
0	540	2526.634	27.729
0	555	2624.461	0
0	559	2649.122	0
0	563	2670.995	0
0	579	2866.939	0
0	583	2898.544	0
0	586	2900.275	0
0	589	2904.897	0
0	597	2956.377	0
0	605	3033.152	11.359
0	609	3038.634	0
0	618	3077.306	0
0	623	3082.175	0
0	631	3144.487	46.423
0	649	3289.615	0
0	654	3359.638	0
0	658	3393.036	0
0	665	3422.567	0
0	669	3439.813	0
0	671	3444.396	0
0	681	3511.43	0
0	684	3519.954	0
0	692	3578.453	0
0	697	3590.921	0
0	704	3600.582	1.717
0	716	3643.81	0
0	731	3793.881	0
0	734	3799.043	0
0	737	3822.67	0
0	748	3889.303	0
0	750	3893.123	0
0	762	3969.088	0
0	769	4043.743	0
0	776	4124.696	0
0	778	4125.351	0
0	787	4221.666	0
0	790	4233.837	0
0	793	4257.5	0
0	801	4297.775	22.888
0	808	4330.928	13.456
0	816	4348.42	0
0	826	4396.08	0
0	831	4440.074	0
0	844	4550.097	0
0	848	4561.061	0
0	851	4572.738	0
0	862	4663.925	0
0	864	4668.581	0
0	871	4693.209	0
0	874	4696.162	0
0	888	4753.139	0
0	891	4776.78	0
0	893	4781.683	0
0	902	4813.364	0
0	908	4821.538	0
0	912	4831.255	0
0	921	4857.707	0
0	926	4877.044	0
0	932	4912.202	0
0	941	4936.25	0
0	949	4957.465	0
0	952	4962.844	0
0	957	4982.656	0
0	964	5017.071	31.941
0	971	5049.3	0
0	981	5120.342	0
0	986	5154.092	0
0	988	5154.535	0
0	996	5178.014	8.641
0	1016	5306.265	0
0	1021	5342.865	0
0	1024	5368.078	0
0	1035	5428.681	0
0	1037	5428.929	0
0	1046	5486.918	0
0	1049	5494.123	0
0	1052	5506.692	0
0	1061	5549.844	0
0	1064	5568.733	0
0	1072	5627.007	20.462
0	1080	5648.858	0
0	1083	5655.802	0
0	1092	5709.09	38.75
0	1097	5725.856	4.681
0	1107	5765.612	10.348
0	1114	5792.131	27.776
0	1116	5794.945	25.333
0	1128	5847.869	58.489
0	1133	5880.877	83.023
0	1136	5903.111	74.246
0	1143	5913.285	0
0	1151	5946.902	0
0	1156	5988.095	0
0	1166	6031.078	0
0	1178	6122.38	0
0	1181	6132.432	0
0	1183	6133.792	0
0	1185	6135.524	0
0	1203	6227.952	0
0	1210	6267.719	0
0	1213	6290.994	0
0	1218	6322.033	0
0	1224	6341.622	0
0	1232	6391.674	0
0	1235	6404.777	0
0	1241	6422.412	0
0	1251	6458.901	0
0	1256	6474.465	0
0	1263	6495.109	0
0	1267	6510.557	0
0	1275	6572.478	0
0	1280	6581.503	7.341
0	1292	6612.391	0
0	1300	6690.803	0
0	1305	6709.99	0
0	1315	6767.547	0
0	1327	6990.221	0
0	1338	7233.705	0
0	1343	7246.891	0
0	1345	7250.129	0
0	1350	7260.097	0
0	1359	7315.13	0
0	1370	7357.859	0
0	1373	7364.095	0
0	1382	7444.944	0
0	1387	7458.886	0
0	1391	7481.396	0
0	1399	7557.292	0
0	1403	7582.362	0
0	1405	7586.994	0
0	1412	7611.055	4.689
0	1420	7636.965	7.514
0	1426	7649.2	0.377
0	1440	7724.449	44.902
0	1447	7762.67	77.052
0	1457	7800.836	110.529
0	1459	7802.673	85.825
0	1465	7817.039	82.899
0	1478	7882.58	118.079
0	1481	7893.333	121.487
0	1483	7893.838	89.189
0	1487	7911.238	60.692
0	1491	7916.558	58.865
0	1500	7948.852	78.342
0	1503	7950.889	35.746
0	1512	8001.456	41.991
0	1525	8081.263	0
0	1530	8137.502	0
0	1535	8147.69	0
0	1543	8198.306	0
0	1546	8208.855	0
0	1548	8214.889	0
0	1560	8278.963	53.493
0	1570	8314.653	38.052
0	1574	8325.735	46.734
0	1576	8326.172	28.625
0	1588	8410.383	101.133
0	1591	8416.836	82.103
0	1599	8461.959	0
0	1604	8476.07	0
0	1610	8505.362	0
0	1622	8554.327	0
0	1627	8578.964	0
0	1637	8628.057	0
0	1642	8670.494	0
0	1647	8743.975	0
0	1661	8842.523	0
0	1664	8864.174	0
0	1674	8912.294	0
0	1678	8943.823	0
0	1682	8950.383	0
0	1691	9003.772	0
0	1697	9041.186	0
0	1703	9075.761	0
0	1713	9133.016	0
0	1716	9161.665	0
0	1726	9223.115	0
0	1729	9233.086	0
0	1740	9309.416	0
0	1745	9318.043	0
0	1751	9367.926	0
0	1762	9453.961	0
0	1767	9536.284	0
0	1774	9590.781	0
0	1779	9608.042	0
0	1787	9668.385	0
0	1793	9704.605	0
0	1799	9728.322	0
0	1803	9746.035	0
0	1807	9767.668	0
0	1816	9801.104	0
0	1824	9865.646	0
0	1826	9867.053	0
0	1835	9905.59	0
0	1841	9941.579	0
0	1846	9959.182	0
0	1855	9987.066	0
0	1866	10110.543	0
0	1869	10134.395	0
0	1873	10139.134	0
0	1879	10143.557	0
0	1887	10190.554	0
0	1898	10213.714	19.097
0	1900	10221.846	23.667
0	1907	10231.73	32.325
0	1914	10271.99	43.314
0	1919	10309.614	14.178
0	1926	10320.482	0
0	1932	10351.851	9.658
0	1942	10399.679	21.857
0	1944	10400.422	7.14
0	1949	10408.237	0
0	1959	10443.85	32.282
0	1967	10489.882	0
0	1973	10516.243	0
0	1977	10524.47	0
0	1983	10552.281	11.848
0	1993	10713.056	146.27
0	1998	10733.693	0
0	2005	10753.834	19.855
0	2013	10770.89	0
0	2028	10850.399	0
0	2032	10878.58	0
0	2036	10896.143	0
0	2041	10920.019	0
0	2047	10946.819	0
0	2051	10969.399	0
0	2066	11075.55	0
0	2070	11108.271	0
0	2080	11180.015	0
0	2083	11184.481	0
0	2085	11184.572	0
0	2098	11288.097	0
0	2101	11301.295	0
0	2109	11348.339	0
0	2112	11353.995	0
0	2117	11372.221	4.7
0	2125	11393.4	0
0	2132	11406.534	0
0	2141	11449.456	0
0	2144	11458.602	0
0	2157	11578.766	101.227
0	2162	11622.494	69.138
0	2169	11657.144	86.683
0	2171	11657.672	9.413
0	2184	11724.691	0
0	2189	11744.704	0
0	2193	11757.617	0
0	2196	11761.45	0
0	2203	11791.569	12.135
0	2214	11852.165	0
0	2219	11866.403	0
0	2221	11869.707	0
0	2231	11887.306	0
0	2234	11900.986	0
0	2242	11932.75	31.573
0	2249	11961.376	0
0	2262	12009.232	0
0	2265	12016.079	0
0	2278	12157.659	0
0	2285	12205.537	0
0	2287	12207.977	0
0	2291	12234.14	0
0	2298	12277.453	0
0	2307	12320.022	17.25
0	2316	12379.329	71.566
0	2319	12401.684	74.284
0	2326	12482.813	151.822
0	2333	12504.486	0
0	2339	12534.63	0
0	2346	12546.329	0
0	2349	12571.863	0
0	2360	12603.054	0
0	2364	12615.394	0
0	2376	12687.781	30.52
0	2379	12719.967	51.304
0	2390	12745.333	69.321
0	2406	12804.561	77.409
0	2415	12890.985	161.092
0	2419	12896.411	163.394
0	2426	12924.838	160.63
0	2435	12968.004	202.786
0	2442	12998.805	229.418
0	2445	13004.61	232.864
0	2451	13018.345	219.763
0	2460	13056.601	247.267
0	2463	13066.681	210.457
0	2465	13072.738	180.684
0	2473	13097.774	191.088
0	2475	13098.037	145.298
0	2483	13126.345	158.268
0	2489	13144.19	156.763
0	2493	13166.262	161.043
0	2495	13167.681	113.196
0	2502	13186.904	111.359
0	2510	13220.856	120.22
0	2513	13235.757	60.975
0	2519	13259.017	0
0	2527	13305.53	13.969
0	2537	13341.086	32.241
0	2544	13379.364	70.383
0	2546	13379.567	52.946
0	2557	13438.412	73.297
0	2559	13439.509	39.507
0	2570	13499.57	68.435
0	2576	13525.597	67.823
0	2580	13534.726	39.196
0	2585	13557.975	54.106
0	2590	13566.35	16.066
0	2599	13627.531	0
0	2606	13653.167	0
0	2612	13668.586	0
0	2622	13712.332	0
0	2629	13752.102	0
0	2632	13776.334	0
0	2634	13781.088	0
0	2649	13856.27	0
0	2651	13859.666	0
0	2656	13887.528	0
0	2666	13923.204	31.83
0	2670	13950.51	28.27
0	2678	14009.491	0
0	2685	14085.317	44.256
0	2693	14109.713	0
0	2697	14131.399	0
0	2705	14174.413	11.932
0	2710	14181.915	0
0	2715	14193.106	0
0	2726	14251.315	0
0	2733	14324.499	0
0	2738	14387.018	0
0	2749	14419.305	0
0	2759	14467.41	0
0	2762	14475.59	0
0	2767	14492.261	0
0	2781	14637.429	0
0	2787	14655.532	0
0	2795	14727.782	0
0	2798	14730.368	0
0	2801	14736.414	0
0	2804	14759.412	0
0	2817	14793.94	0
0	2826	14890.754	0
0	2829	14917.616	0
0	2833	14936.346	0
0	2841	14988.897	0
0	2848	15012.859	0
0	2854	15037.549	0
0	2860	15083.148	0
0	2865	15112.607	12.308
0	2874	15137.818	23.35
0	2878	15154.912	19.94
0	2886	15170.899	0
0	2890	15186.209	0
0	2899	15215.803	15.603
0	2904	15252.445	43.817
0	2910	15276.803	0
0	2914	15280.48	0.125
0	2926	15344.972	0
0	2930	15361.048	0
0	2938	15393.318	17.078
0	2944	15453.894	73.843
0	2953	15496.363	0
0	2961	15535.945	0
0	2965	15542.316	0
0	2967	15544.762	0
0	2982	15618.253	0
0	2985	15627.369	0
0	2987	15631.48	0
0	2997	15678.694	30.754
0	3006	15732.438	50.558
0	3009	15750.293	21.51
0	3025	15837.196	85.829
0	3031	15851.933	91.555
0	3034	15870.142	67.807
0	3047	15940.638	132.977
0	3049	15941.263	130.25
0	3052	15945.197	95.019
0	3061	15979.86	76.411
0	3065	16002.002	95.659
0	3079	16055.697	141.924
0	3082	16075.98	106.787
0	3087	16103.037	86.272
0	3089	16106.126	83.303
0	3094	16119.333	75.332
0	3097	16128.249	82.459
0	3109	16180.423	42.224
0	3111	16180.86	39.988
0	3119	16214.549	0
0	3130	16261.628	0
0	3133	16271.312	0
0	3140	16310.345	15.386
0	3146	16332.208	14.76
0	3160	16425.461	0
0	3163	16430.762	0
0	3166	16436.119	0
0	3168	16436.742	0
0	3179	16471.006	0
0	3184	16498.713	0
0	3191	16535.217	0
0	3205	16597.176	0
0	3209	16622.859	0
0	3216	16659.735	0
0	3224	16753.363	0
0	3227	16782.303	0
0	3238	16836.435	0
0	3247	16892.411	0
0	3250	16900.098	0
0	3256	16949.743	0
0	3258	16950.039	0
0	3264	16963.432	0
0	3272	16989.049	0
0	3281	17036.983	0
0	3283	17037.416	0
0	3303	17118.68	67.696
0	3306	17132.004	66.249
0	3311	17158.94	92.861
0	3317	17168.539	70.693
0	3322	17189.989	84.691
0	3335	17229.146	116.224
0	3338	17245.864	106.039
0	3340	17246.153	70.728
0	3345	17274.923	72.704
0	3353	17294.521	90.534
0	3361	17354.924	126.104
0	3373	17424.96	133.481
0	3376	17429.146	114.749
0	3388	17486.075	107.911
0	3397	17529.515	136.413
0	3412	17585.71	166.121
0	3414	17588.025	152.5
0	3424	17625.604	174.95
0	3428	17641.583	184.751
0	3433	17679.169	186.852
0	3439	17718.221	195.176
0	3447	17771.711	238.131
0	3449	17774.492	227.966
0	3451	17778.019	230.519
0	3456	17797.743	238.18
0	3470	17856.382	293.799
0	3473	17864.195	255.977
0	3477	17884.538	266.231
0	3480	17895.067	198.638
0	3489	17929.755	168.744
0	3491	17932.551	100.695
0	3500	17979.16	144.314
0	3508	18013.417	163.815
0	3511	18031.408	121.581
0	3514	18042.002	94.712
0	3523	18077.005	90.3
0	3525	18086.426	16.134
0	3533	18106.519	0
0	3535	18107.324	0
0	3544	18131.824	11.142
0	3555	18184.506	43.913
0	3558	18188.43	7.554
0	3570	18289.413	0
0	3573	18292.345	0
0	3577	18312.947	0
0	3583	18324.789	2.459
0	3594	18390.372	46.14
0	3597	18396.499	39.036
0	3609	18426.201	0
0	3615	18466.32	0
0	3619	18494.255	0
0	3621	18496.186	0
0	3631	18547.509	26.277
0	3638	18557.245	0
0	3642	18586.586	0
0	3652	18670.288	0
0	3657	18680.526	0.726
0	3665	18732.272	47.354
0	3672	18803.291	63.571
0	3677	18812.492	0
0	3682	18823.647	10.861
0	3692	18851.799	27.585
0	3704	18901.435	67.816
0	3706	18907.705	35.518
0	3711	18941.98	61.045
0	3718	18961.061	76.832
0	3720	18964.54	21.088
0	3729	19009.407	0
0	3734	19016.165	0
0	3740	19043.392	18.088
0	3751	19123.155	36.917
0	3754	19132.681	42.056
0	3766	19178.238	30.326
0	3772	19225.088	57.295
0	3775	19231.037	53.477
0	3780	19236.521	0
0	3785	19246.133	0
0	3793	19268.162	3.574
0	3799	19287.612	0
0	3806	19315.359	0
0	3817	19405.689	48.559
0	3819	19407.694	25.812
0	3830	19476.11	50.932
0	3833	19498.338	43.579
0	3840	19529.81	5.207
0	3845	19539.318	1.897
0	3854	19576.398	19.455
0	3861	19641.186	0
0	3870	19690.175	15.272
0	3875	19695.166	5.379
0	3877	19696.149	2.181
0	3884	19725.141	0
0	3904	19872.741	0
0	3913	19959.881	0
0	3916	19972.732	0
0	3921	20005.885	0
0	3929	20079.375	0
0	3932	20089.387	0
0	3936	20102.367	0
0	3938	20107.498	0
0	3951	20174.407	53.01
0	3954	20183.826	58.472
0	3972	20246.17	50.288
0	3977	20289.455	84.231
0	3979	20291.764	78.988
0	3982	20299.103	71.669
0	3986	20305.557	61.2
0	3989	20323.431	78.97
0	4004	20368.383	25.351
0	4009	20383.366	20.621
0	4012	20395.093	27.566
0	4017	20402.829	26.446
0	4031	20479.867	62.299
0	4034	20498.6	72.282
0	4042	20544.755	112.722
0	4047	20572.547	62.436
0	4053	20582.126	26.797
0	4057	20604.495	23.013
0	4070	20668.862	40.488
0	4079	20715.438	71.979
0	4095	20754.093	89.378
0	4097	20754.466	60.481
0	4099	20755.713	61.585
0	4105	20771.926	53.247
0	4119	20831.561	110.811
0	4124	20843.692	119.861
0	4132	20912.065	186.461
0	4137	20931.307	191.656
0	4145	20977.405	232.734
0	4155	21021.902	241.363
0	4162	21078.91	278.515
0	4165	21110.443	302.579
0	4170	21120.943	278.198
0	4177	21155.269	295.094
0	4182	21175.494	253.282
0	4186	21186.428	210.28
0	4189	21189.155	205.35
0	4193	21202.44	180.885
0	4195	21210.341	148.796
0	4201	21224.003	71.502
0	4204	21229.016	59.05
0	4212	21245.319	6.794
0	4232	21318.423	66.397
0	4243	21351.231	85.183
0	4248	21369.927	97.042
0	4256	21394.381	109.062
0	4260	21404.337	118.705
0	4279	21507.937	219.174
0	4281	21510.492	187.436
0	4289	21527.564	201.5
0	4291	21528.371	200.412
0	4296	21535.455	195.309
0	4306	21560.852	179.049
0	4311	21577.944	191.124
0	4314	21586.152	181.303
0	4320	21601.792	194.378
0	4327	21629.041	184.057
0	4331	21645.106	185.67
0	4338	21676.955	189.171
0	4354	21736.091	244.389
0	4357	21771.868	253.181
0	4361	21778.212	258.949
0	4368	21806.933	276.17
0	4372	21828.543	284.31
0	4377	21839.182	227.009
0	4382	21849.037	178.079
0	4390	21891.406	211.389
0	4396	21911.032	230.545
0	4398	21913.653	225.884
0	4405	21938.733	237.345
0	4412	21959.965	248.766
0	4415	21961.707	170.597
0	4422	21980.953	142.293
0	4431	22039.871	190.281
0	4434	22054.699	152.053
0	4443	22091.397	177.155
0	4445	22092.21	135.845
0	4452	22138.137	174.317
0	4465	22228.134	206.186
0	4470	22307.466	242.976
0	4477	22340.258	266.273
0	4482	22382.045	197.206
0	4485	22401.022	205.502
0	4489	22420.727	209.977
0	4497	22487.35	157.652
0	4505	22507.555	52.853
0	4508	22515.324	26.942
0	4514	22554.281	62.96
0	4521	22599.895	0
0	4531	22635.579	0
0	4534	22641.529	0
0	4550	22779.749	0
0	4558	22854.868	0
0	4562	22867.934	0
0	4565	22882.995	0
0	4569	22897.818	0
0	4573	22909.247	0
0	4587	22980.484	0
0	4592	22989.856	0
0	4601	23028.237	0
0	4608	23073.553	0
0	4614	23107.092	0
0	4618	23140.431	0
0	4628	23207.828	0
0	4632	23224.107	0
0	4639	23273.659	0
0	4645	23299.896	0
0	4653	23385.058	0
0	4656	23394.276	0
0	4667	23441.884	0
0	4670	23458.304	0
0	4673	23461.252	0
0	4680	23488.079	6.142
0	4689	23536.26	28.384
0	4699	23579.967	39.123
0	4703	23604.987	52.392
0	4713	23633.684	60.076
0	4715	23638.147	26.1
0	4717	23638.692	24.426
0	4729	23689.725	71.485
0	4733	23702.435	51.985
0	4739	23741.566	0
0	4747	23751.111	0
0	4751	23767.01	0
0	4760	23804.799	0
0	4765	23831.794	0
0	4778	23951.564	64.825
0	4781	23969.208	24.131
0	4783	23973.499	24.635
0	4795	24063.241	27.05
0	4804	24130.584	0
0	4807	24160.018	0
0	4814	24186.498	0
0	4819	24193.017	0
0	4825	24213.642	16.159
0	4844	24290.803	70.48
0	4852	24313.929	89.106
0	4858	24337.555	109.326
0	4869	24361.7	104.88
0	4873	24386.03	106.277
0	4877	24415.657	132.239
0	4885	24456.847	163.168
0	4887	24457.172	154.81
0	4891	24470.958	147.117
0	4896	24477.665	139.134
0	4902	24495.912	156.42
0	4906	24507.791	156.321
0	4913	24551.759	130.642
0	4915	24553.029	76.225
0	4921	24574.455	0
0	4935	24620.738	26.014
0	4938	24640.4	33.912
0	4949	24675.579	68.705
0	4957	24735.216	83.106
0	4960	24750.427	86.705
0	4965	24763.373	88.953
0	4974	24804.248	74.214
0	4987	24869.485	116.743
0	4989	24870.07	95.734
0	4998	24914.364	109.323
0	5003	24935.046	113.95
0	5011	24956.923	108.958
0	5015	24966.434	110.149
0	5017	24968.814	96.516
0	5031	24997.394	74.379
0	5044	25049.547	110.354
0	5047	25066.821	113.746
0	5055	25111.419	140.378
0	5058	25115.964	142.934
0	5061	25127.956	151.79
0	5072	25178.073	194.939
0	5075	25188.216	172.221
0	5077	25190.025	161.198
0	5083	25201.41	165.845
0	5095	25304.189	211.298
0	5101	25329.859	199.441
0	5103	25336.569	168.194
0	5108	25355.359	75.83
0	5121	25421.98	123.122
0	5129	25447.381	142.565
0	5139	25481.611	107.742
0	5145	25499.216	95.006
0	5151	25513.065	91.315
0	5160	25570.925	131.391
0	5166	25616.055	170.194
0	5170	25640.356	169.042
0	5174	25658.42	184.272
0	5179	25664.864	184.575
0	5181	25669.707	170.922
0	5192	25721.451	210.535
0	5195	25734.41	206.475
0	5202	25765.446	174.981
0	5211	25813.849	154.229
0	5214	25823.424	124.658
0	5218	25825.877	64.998
0	5222	25836.269	26.191
0	5236	25906.472	81.377
0	5238	25914.709	77.739
0	5242	25923.654	26.659
0	5250	25943.735	38.477
0	5253	25948.124	17.947
0	5264	25997.306	61.159
0	5273	26041.691	71.65
0	5276	26052.105	40.454
0	5281	26092.341	80.496
0	5287	26123.402	0
0	5299	26206.968	0
0	5302	26216.79	0
0	5306	26229.651	0
0	5310	26232.498	1.543
0	5318	26257.521	0
0	5330	26284.759	26.493
0	5334	26297.51	33.853
0	5342	26359.143	78.971
0	5347	26375.45	38.931
0	5354	26417.84	53.55
0	5359	26427.033	4.283
0	5371	26488.833	0
0	5374	26507.302	0
0	5387	26608.106	0
0	5390	26629.259	0
0	5395	26654.405	0
0	5397	26658.819	0
0	5409	26714.719	30.876
0	5411	26716.794	10.735
0	5417	26736.596	17.028
0	5427	26766.019	27.744
0	5433	26784.339	36.659
0	5435	26786.72	18.279
0	5444	26812.889	0
0	5447	26818.923	0
0	5460	26848.513	12.808
0	5464	26865.679	22.754
0	5471	26890.348	43.394
0	5478	26935.092	48.042
0	5482	26965.971	64.615
0	5495	27019.62	0
0	5498	27045.024	0
0	5505	27078.24	0
0	5509	27087.67	0
0	5514	27104.041	6.087
0	5527	27143.089	0
0	5537	27245.398	0
0	5543	27296.921	0
0	5553	27363.136	0
0	5556	27374.882	0
0	5566	27435.318	0
0	5569	27446.482	0
0	5584	27603.076	0
0	5587	27630.989	0
0	5591	27636.543	0
0	5594	27645.559	0
0	5596	27649.426	0
0	5601	27660.729	0
0	5609	27687.065	4.895
0	5615	27695.469	2.245
0	5624	27755.796	50.629
0	5629	27775.08	0
0	5646	27973.579	0
0	5648	27976.095	0
0	5652	27986.304	0
0	5664	28088.65	0
0	5673	28144.769	0
0	5676	28155.141	0
0	5685	28241.294	0
0	5690	28279.255	0
0	5692	28279.621	0
0	5698	28301.336	16.844
0	5707	28355.335	11.395
0	5719	28447.891	0
0	5722	28463.196	0
0	5725	28469.631	0
0	5736	28544.304	38.035
0	5738	28545.946	29.927
0	5749	28591.78	34.871
0	5755	28624.68	67.563
0	5757	28625.157	33.152
0	5766	28644.389	12.078
0	5768	28646.743	5.88
0	5780	28672.392	15.442
0	5782	28676.552	8.153
0	5802	28785.968	115.899
0	5804	28792.292	113.03
0	5814	28839.716	126.841
0	5818	28862.932	142.233
0	5823	28914.026	188.758
0	5829	28940.477	188.616
0	5833	28970.737	156.896
0	5838	28990.378	66.066
0	5844	29023.642	5.551
0	5851	29050.349	24.207
0	5859	29117.216	26.515
0	5866	29169.854	20.779
0	5872	29206.958	0
0	5879	29256.043	47.539
0	5886	29295.961	0
0	5893	29341.675	0
0	5902	29374.517	32.106
0	5906	29392.547	49.186
0	5908	29392.821	37.674
0	5916	29404.853	5.393
0	5932	29469.258	17.892
0	5935	29490.616	38.296
0	5947	29568.387	111.836
0	5950	29571.938	115.287
0	5956	29588.598	87.862
0	5958	29591.722	80.604
0	5966	29616.211	53.318
0	5968	29617.928	37.007
0	5976	29653.569	60.651
0	5982	29681.949	0
0	5988	29683.506	1.29
0	6000	29753.884	71.299
0	6004	29758.073	61.099
0	6009	29766.528	16.099
0	6017	29805.786	48.451
0	6020	29815.979	29.995
0	6030	29858.108	16.542
0	6043	29912.059	65.25
0	6052	29936.796	71.259
0	6057	29953.71	54.254
0	6070	30017.435	116.502
0	6073	30033.258	128.953
0	6077	30055.796	133.39
0	6082	30076.496	149.639
0	6087	30113.27	179.993
0	6096	30121.881	143.381
0	6100	30133.208	148.922
0	6102	30134.944	135.051
0	6106	30152.028	37.374
0	6111	30161.869	44.526
0	6116	30179.374	58.717
0	6130	30251.667	0
0	6133	30257.63	0
0	6136	30269.502	0
0	6140	30272.721	3.146
0	6153	30322.903	0
0	6166	30380.252	0
0	6170	30418.072	0
0	6181	30570.638	0
0	6191	30648.529	0
0	6195	30668.531	0
0	6203	30738.606	0
0	6206	30746.789	0
0	6209	30755.061	0
0	6220	30811.403	0
0	6222	30813.47	0
0	6229	30862.083	0
0	6235	30901.562	0
0	6241	30922.679	0
0	6254	31050.855	0
0	6266	31152.859	0
0	6274	31248.3	0
0	6278	31262.69	0
0	6286	31366.046	0
0	6293	31437.454	0
0	6297	31460.208	0
0	6301	31486.863	0
0	6308	31509.181	0
0	6311	31516.968	0
0	6320	31576.256	0
0	6327	31608.537	0
0	6332	31644.163	0
0	6335	31650.444	0
0	6342	31682.592	0
0	6355	31770.29	0
0	6365	31829.548	0
0	6372	31849.578	0
0	6378	31899.414	0
0	6383	31907.4	0
0	6387	31924.909	0
0	6391	31939.013	0
0	6396	31967.687	0
0	6407	31990.002	0
0	6413	32011.613	0
0	6416	32020.459	0
0	6420	32031.473	0
0	6430	32060.733	0
0	6438	32103.872	0
0	6441	32132.588	0
0	6449	32217.355	0
0	6457	32228.743	0
0	6464	32271.381	0
0	6466	32275.186	0
0	6478	32307.697	24.152
0	6486	32338.287	40.842
0	6491	32344.238	43.958
0	6496	32366.854	41.491
0	6500	32381.113	54.089
0	6504	32389.135	49.025
0	6517	32463.649	72.133
0	6527	32504.617	93.107
0	6534	32545.892	76.246
0	6539	32602.983	131.683
0	6542	32616.407	127.466
0	6544	32623.131	113.229
0	6552	32645.001	0
0	6559	32667.565	0
0	6569	32713.729	0
0	6572	32738.633	0
0	6579	32772.658	19.831
0	6585	32792.357	7.916
0	6590	32803.472	0
0	6600	32830.323	25.583
0	6605	32836.845	16.29
0	6614	32905.662	74.016
0	6625	32935.923	69.598
0	6630	32958.291	51.913
0	6633	32964.71	56.01
0	6645	33001.365	74.528
0	6648	33024.634	92.923
0	6650	33024.74	46.833
0	6664	33076.794	92.288
0	6671	33111.068	75.445
0	6676	33129.258	82.62
0	6684	33196.102	126.497
0	6687	33229.242	148.02
0	6692	33246.703	153.311
0	6694	33258.106	81.532
0	6706	33351.575	50.328
0	6712	33384.638	62.781
0	6720	33442.786	79.435
0	6722	33443.667	1.82
0	6728	33478.762	0
0	6740	33546.696	64.334
0	6743	33561.128	25.755
0	6754	33613.002	0
0	6761	33684.487	0
0	6763	33689.583	0
0	6769	33715.554	0
0	6780	33758.427	0
0	6789	33825.776	0
0	6792	33828.877	0
0	6796	33848.525	0
0	6806	33894.952	20.341
0	6812	33910.364	24.443
0	6817	33915.589	17.118
0	6825	33957.284	44.584
0	6829	33973.621	45.469
0	6839	34036.246	12.696
0	6842	34061.366	34.821
0	6859	34173.926	0
0	6865	34216.54	0
0	6871	34259.01	0
0	6875	34261.253	0
0	6878	34284.869	0
0	6892	34418.293	0
0	6895	34437.869	0
0	6898	34440.926	0
0	6905	34488.766	0
0	6909	34499.898	4.401
0	6918	34550.252	27.454
0	6923	34556.507	0
0	6931	34599.087	0
0	6946	34659.063	0
0	6949	34666.422	0
0	6959	34729.834	0
0	6961	34733.273	0
0	6972	34793.523	0
0	6978	34830.662	0
0	6981	34839.168	0
0	6986	34857.104	0
0	6995	34895.731	0
0	6998	34903.196	0
0	7000	34904.969	0
0	7010	34939.06	27.249
0	7019	34987.681	51.863
0	7024	35056.004	93.306
0	7039	35104.518	46.671
0	7044	35168.269	106.875
0	7049	35174.335	103.118
0	7051	35184.221	107.87
0	7055	35197.602	106.19
0	7064	35225.839	52.898
0	7070	35285.303	71.35
0	7075	35313.677	1.867
0	7085	35356.734	0
0	7088	35379.937	0
0	7092	35384.04	0
0	7105	35432.204	21.485
0	7112	35468.868	45.099
0	7119	35488.982	32.248
0	7123	35502.157	25.879
0	7127	35523.135	45.877
0	7135	35555.482	0
0	7140	35565.794	0
0	7146	35585.986	0
0	7157	35604.209	15.777
0	7160	35625.655	35.173
0	7175	35691.347	95.067
0	7179	35715.826	86.87
0	7185	35739.227	63.485
0	7193	35797.165	112.481
0	7204	35866.054	178.87
0	7206	35869.923	138.247
0	7211	35887.105	123.322
0	7218	35912.191	114.232
0	7222	35927.491	121.652
0	7227	35957.797	148.082
0	7233	35964.228	69.539
0	7235	35965.4	6.197
0	7248	36018.362	0
0	7257	36112.549	0
0	7261	36144.751	0
0	7264	36151.569	0
0	7269	36160.72	7.1
0	7276	36182.546	0
0	7284	36205.873	21.002
0	7291	36213.46	4.513
0	7293	36219.292	6.641
0	7306	36259.428	0
0	7315	36339.533	0
0	7317	36339.92	0
0	7321	36355.515	0
0	7332	36409.432	0
0	7335	36417.88	0
0	7345	36459.245	0
0	7349	36491.401	0
0	7358	36533.856	0
0	7360	36534.136	0
0	7373	36599.04	0
0	7378	36628.239	0
0	7380	36634.505	0
0	7391	36648.141	6.55
0	7397	36664.47	18.615
0	7401	36671.23	24.612
0	7410	36710.457	49.109
0	7415	36719.33	15.569
0	7419	36734.282	23.553
0	7424	36744.927	1.113
0	7432	36772.373	25.253
0	7441	36797.189	13.792
0	7447	36821.246	24.458
0	7457	36859.526	58.916
0	7464	36902.198	69.126
0	7467	36919.654	79.332
0	7471	36949.637	53.361
0	7481	36997.438	0
0	7490	37037.916	0
0	7493	37060.079	0
0	7506	37180.977	0
0	7511	37206.39	0
0	7513	37210.284	0
0	7526	37257.802	0
0	7530	37268.404	0
0	7533	37289.787	0
0	7537	37304.139	0
0	7545	37345.118	26.059
0	7558	37440.513	0
0	7564	37493.649	0
0	7570	37528.15	0
0	7574	37540.566	0
0	7576	37543.443	0
0	7588	37609.038	65.363
0	7594	37622.869	57.195
0	7596	37630.014	16.96
0	7608	37684.936	0
0	7613	37707.02	0
0	7617	37728.698	0
0	7631	37785.234	55.1
0	7641	37830.238	89.519
0	7644	37839.753	75.842
0	7652	37885.301	102.501
0	7654	37886.957	97.426
0	7657	37890.943	67.138
0	7662	37900.659	20.019
0	7678	37991.402	93.771
0	7685	38056.592	131.88
0	7694	38125.17	154.138
0	7702	38159.413	185.112
0	7707	38199.311	176.19
0	7710	38212.445	144.892
0	7712	38219.106	134.609
0	7715	38221.258	92.849
0	7725	38281.192	131.473
0	7730	38313.567	28.571
0	7739	38340.657	12.299
0	7745	38369.696	40.848
0	7747	38371.946	5.39
0	7760	38415.209	41.512
0	7763	38419.911	27.331
0	7770	38432.37	7.847
0	7777	38479.053	50.196
0	7784	38513.429	0
0	7795	38617.953	0
0	7797	38618.479	0
0	7801	38633.804	0
0	7814	38677.131	14.39
0	7816	38687.88	23.824
0	7823	38735.337	64.539
0	7829	38764.402	0
0	7837	38794.851	0
0	7841	38810.967	0
0	7848	38832.637	0
0	7860	38898.826	0
0	7867	38947.493	0
0	7882	39070.612	0
0	7885	39074.063	0
0	7890	39112.635	0
0	7894	39120.646	0
0	7897	39143.151	0
0	7899	39143.667	0
0	7909	39173.309	0
0	7918	39231.991	0
0	7927	39269.592	0
0	7937	39363.492	0
0	7940	39392.206	0
0	7947	39421.249	0
0	7956	39475.105	0
0	7962	39494.22	0
0	7968	39546.897	0
0	7973	39574	0
0	7982	39625.31	0
0	7989	39672.343	0
0	7992	39687.934	0
0	8000	39750.912	0
0	8007	39793.436	0
0	8012	39822.861	0
0	8015	39826.674	0
0	8028	39875.488	0
0	8035	39932.436	0
0	8044	39997.995	0
0	8050	40091.718	0
0	8053	40108.723	0
0	8056	40123.068	0
0	8064	40149.895	22.472
0	8070	40180.88	17.801
0	8078	40210.761	0
0	8084	40235.527	17.392
0	8094	40283.418	0
0	8097	40299.845	0
0	8106	40320.209	0
0	8109	40332.183	0
0	8118	40399.453	0
0	8122	40407.876	1.089
0	8128	40430.745	10.635
0	8141	40491.095	0
0	8147	40521.121	0
0	8151	40542.847	0
0	8153	40544.802	0
0	8163	40602.025	40.139
0	8172	40665.597	0
0	8177	40676.697	0
0	8181	40688.747	0
0	8194	40762.477	0
0	8199	40783.141	0
0	8207	40818.168	0
0	8211	40837.225	0
0	8223	40883.762	0
0	8228	40900.429	0
0	8230	40902.865	0
0	8243	40987.31	0
0	8249	41034.08	0
0	8259	41121.155	0
0	8267	41238.363	0
0	8276	41322.578	0
0	8281	41376.548	0
0	8284	41398.455	0
0	8291	41454.568	0
0	8293	41454.589	0
0	8296	41460.825	0
0	8308	41507.895	45.711
0	8312	41514.911	10.162
0	8324	41596.926	85.041
0	8326	41600.898	54.703
0	8329	41607.688	57.851
0	8343	41681.364	45.965
0	8346	41694.061	30.325
0	8356	41743.894	79.697
0	8369	41798.561	102.593
0	8371	41801.209	73.182
0	8373	41801.466	40.338
0	8379	41824.188	58.039
0	8387	41841.264	68.061
0	8390	41852.43	75.476
0	8396	41871.795	37.94
0	8404	41909.157	56.204
0	8412	41959.059	74.693
0	8422	42003.169	83.939
0	8427	42029.068	64.546
0	8433	42046.656	44.188
0	8441	42098.371	89.112
0	8446	42106.177	63.973
0	8452	42145.753	94.685
0	8455	42159.043	54.652
0	8460	42167.541	6.129
0	8471	42228.95	0
0	8476	42236.134	0
0	8488	42371.978	0
0	8496	42484.514	0
0	8501	42514.87	0
0	8509	42566.873	0
0	8514	42577.955	0
0	8516	42583.293	0
0	8529	42635.473	0
0	8532	42642.994	0
0	8538	42667.225	0
0	8543	42694.486	0
0	8548	42705.787	0
0	8560	42832.331	0
0	8567	42878.74	0
0	8573	42903.502	0
0	8581	42970.536	0
0	8592	43029.789	0
0	8595	43042.183	0
0	8604	43144.448	0
1	2	0	0
1	5	9.153	0
1	16	135.122	0
1	21	184.108	0
1	27	237.004	0
1	33	268.444	0