version 2
run General-0-20220123-01:16:32-20028
attr configname General
attr datetime 20220123-01:16:32
attr experiment General
attr inifile omnetpp.ini
attr iterationvars ""
attr iterationvarsf ""
attr measurement ""
attr network PolicyB
attr processid 20028
attr repetition 0
attr replication #0
attr resultdir results
attr runnumber 0
attr seedset 0

vector 0 PolicyB.queue4 "time spent on the queue" ETV
attr interpolationmode none
vector 1 PolicyB.queue4 "queue size after modification" ETV
attr interpolationmode none
vector 2 PolicyB.queue1 "time spent on the queue" ETV
attr interpolationmode none
vector 3 PolicyB.queue1 "queue size after modification" ETV
attr interpolationmode none
vector 4 PolicyB.queue2 "time spent on the queue" ETV
attr interpolationmode none
vector 5 PolicyB.queue2 "queue size after modification" ETV
attr interpolationmode none
vector 6 PolicyB.queue3 "time spent on the queue" ETV
attr interpolationmode none
vector 7 PolicyB.queue3 "queue size after modification" ETV
attr interpolationmode none
vector 8 PolicyB.queue0 "time spent on the queue" ETV
attr interpolationmode none
vector 9 PolicyB.queue0 "queue size after modification" ETV
attr interpolationmode none
vector 10 PolicyB.queue2 "processing time with client order" ETV
attr interpolationmode none
vector 11 PolicyB.queue3 "processing time with client order" ETV
attr interpolationmode none
vector 12 PolicyB.queue0 "processing time with client order" ETV
attr interpolationmode none
vector 13 PolicyB.queue4 "processing time with client order" ETV
attr interpolationmode none
vector 14 PolicyB.queue1 "processing time with client order" ETV
attr interpolationmode none
0	2	0	0
0	71	537.773	36.315
0	187	1349.524	37.49
0	362	2537.451	28.93
0	423	2875.43	93.198
0	540	3917.283	16.73
0	601	4410.921	144.907
0	786	5614.381	64.432
0	912	6527.383	89.099
0	988	6966.354	64.86
0	1018	7081.761	55.177
0	1156	8287.343	56.865
0	1237	8847.319	108.582
0	1388	10098.987	96.966
0	1481	10750.738	92.199
0	1537	11184.366	198.401
0	1578	11410.56	39.934
0	1591	11552.642	95.512
0	1600	11584.349	10.222
0	1636	11861.691	150.924
0	1697	12443.1	103.841
0	1937	14202.849	1.436
0	1991	14534.201	37.629
0	2006	14632.874	49.48
0	2013	14665.001	5.675
0	2037	14803.197	26.286
0	2302	16302.261	101.033
0	2444	17508.974	139.818
0	2581	18454.809	45.83
0	2650	18870.178	134.757
0	2697	19271.814	307.18
0	2757	19722.85	115.42
0	2774	19809.38	42.505
0	2843	20273.425	21.493
0	2959	20914.46	14.01
0	3196	22796.463	39.277
0	3338	23790.799	2.143
0	3394	24258.574	218.291
0	3451	24696.126	0.495
0	3480	24870.095	81.979
0	3509	25197.366	160.482
0	3599	25818.458	156.211
0	3704	26802.621	5.204
0	3766	27212.241	7.27
0	3787	27310.984	19.779
0	3877	28026.844	35.79
0	3967	28622.175	3.438
0	4190	30239.492	44.986
0	4283	31144.107	114.559
0	4328	31385.752	64.612
0	4346	31495.153	85.239
0	4441	32166.911	25.186
0	4780	34766.819	30.403
0	4851	35194.36	38.805
0	4911	35505.765	264.94
0	4920	35569.225	49.433
0	4993	36142.738	5.687
0	5084	36922.022	8.653
0	5143	37285.081	36.768
0	5190	37525.944	80.987
0	5328	38600.848	87.46
0	5355	38721.196	108.169
0	5375	38794.438	4.271
0	5480	39528.56	48.476
0	5594	40178.339	62.633
0	5790	41464.929	108.572
0	5859	41883.658	68.13
0	6063	43844.046	87.226
0	6171	44698.75	34.619
0	6267	45412.57	254.62
0	6321	45899.886	33.431
0	6698	48602.456	4.148
0	6711	48708.162	80.022
0	6726	48754.544	4.567
0	6795	49166.62	74.206
0	6831	49393.229	131.915
0	6922	50032.008	300.15
0	6995	50574.52	35.819
0	7019	50739.18	18.277
0	7050	50904.124	163.212
0	7091	51097.463	36.191
0	7159	51641.471	103.883
0	7319	52728.341	84.526
0	7342	52996.539	33.103
0	7368	53156.27	85.763
0	7408	53412.792	103.037
0	7476	53949.613	77.536
0	7520	54216.17	62.465
0	7541	54387.572	169.595
0	7609	54995.82	151.067
0	7667	55223.745	31.025
0	7724	55621.529	77.284
0	7750	55821.993	63.016
0	7824	56521.661	112.254
1	2	0	0
1	26	193.592	1
1	44	308.568	2
1	65	501.458	3
1	71	537.773	2
1	76	582.87	3
1	82	599.944	4
1	98	760.233	5
1	118	905.817	6
1	128	975.976	7
1	148	1181.788	8
1	182	1312.034	9
1	187	1349.524	8
1	199	1422.058	9
1	207	1453.837	10
1	238	1730.92	11
1	246	1758.293	12
1	263	1840.31	13
1	301	2026.101	14
1	318	2215.663	15
1	341	2431.57	16
1	356	2508.521	17
1	362	2537.451	16
1	370	2546.573	17
1	376	2577.144	18
1	406	2724.499	19
1	417	2782.232	20
1	423	2875.43	19
1	428	2992.978	20
1	447	3106.817	21
1	465	3271.474	22
1	475	3397.252	23
1	491	3465.168	24
1	497	3510.279	25
1	511	3674.992	26
1	521	3741.071	27
1	536	3900.553	28
1	540	3917.283	27
1	550	3963.272	28
1	556	4069.87	29
1	591	4266.014	30
1	601	4410.921	29
1	605	4416.651	30
1	609	4424.81	31
1	623	4488.355	32
1	641	4666.35	33
1	659	4726.345	34
1	679	4830.492	35
1	700	4929.997	36
1	706	4955.782	37
1	723	5091.519	38
1	756	5341.276	39
1	782	5549.949	40
1	786	5614.381	39
1	790	5620.238	40
1	793	5645.383	41
1	805	5785.511	42
1	833	6064.963	43
1	845	6137.344	44
1	853	6204.312	45
1	857	6221.319	46
1	888	6399.069	47
1	893	6438.284	48
1	912	6527.383	47
1	916	6539.42	48
1	921	6557.68	49
1	932	6631.435	50
1	946	6752.468	51
1	952	6779.74	52
1	980	6901.494	53
1	988	6966.354	52
1	992	6969.834	53
1	1001	7008.729	54
1	1009	7026.584	55
1	1018	7081.761	54
1	1025	7140.081	55
1	1040	7208.251	56
1	1059	7400.539	57
1	1065	7487.44	58
1	1087	7611.95	59
1	1103	7855.796	60
1	1111	7929.987	61
1	1117	8000.439	62
1	1139	8185.53	63
1	1148	8230.478	64
1	1156	8287.343	63
1	1173	8365.612	64
1	1181	8442.493	65
1	1187	8472.654	66
1	1202	8554.939	67
1	1216	8713.795	68
1	1224	8738.737	69
1	1237	8847.319	68
1	1241	8851.463	69
1	1252	8938.375	70
1	1256	9011.497	71
1	1264	9046.24	72
1	1287	9171.922	73
1	1295	9293.255	74
1	1301	9365.796	75
1	1317	9557.404	76
1	1321	9569.164	77
1	1339	9710.729	78
1	1341	9780.91	79
1	1353	9863.077	80
1	1370	10002.021	81
1	1388	10098.987	80
1	1394	10138.476	81
1	1396	10146.838	82
1	1406	10225.298	83
1	1426	10290.613	84
1	1438	10392.345	85
1	1452	10474.666	86
1	1456	10500.655	87
1	1468	10658.539	88
1	1481	10750.738	87
1	1485	10762.617	88
1	1510	10958.716	89
1	1514	10985.965	90
1	1537	11184.366	89
1	1541	11185.607	90
1	1545	11199.307	91
1	1552	11225.013	92
1	1558	11285.761	93
1	1570	11370.626	94
1	1578	11410.56	93
1	1583	11457.13	94
1	1591	11552.642	93
1	1595	11566.866	94
1	1597	11574.127	95
1	1600	11584.349	94
1	1611	11710.767	95
1	1636	11861.691	94
1	1643	11885.287	95
1	1648	11936.234	96
1	1654	12012.446	97
1	1682	12339.259	98
1	1697	12443.1	97
1	1701	12445.934	98
1	1722	12530.914	99
1	1730	12593.203	100
1	1738	12674.094	101
1	1757	12868.707	102
1	1767	12947.913	103
1	1788	13126.726	104
1	1796	13207.035	105
1	1820	13311.194	106
1	1840	13432.969	107
1	1850	13497.599	108
1	1860	13591.118	109
1	1874	13837.509	110
1	1889	13954.37	111
1	1901	13984.997	112
1	1913	14011.983	113
1	1935	14201.413	114
1	1937	14202.849	113
1	1941	14210.011	114
1	1970	14380.017	115
1	1985	14496.572	116
1	1991	14534.201	115
1	1995	14539.668	116
1	2002	14583.394	117
1	2006	14632.874	116
1	2010	14659.326	117
1	2013	14665.001	116
1	2017	14686.8	117
1	2033	14776.911	118
1	2037	14803.197	117
1	2041	14803.632	118
1	2045	14824.948	119
1	2052	14905.562	120
1	2069	15027.45	121
1	2099	15338.639	122
1	2111	15451.886	123
1	2113	15456.489	124
1	2152	15569.945	125
1	2177	15732.171	126
1	2187	15781.396	127
1	2197	15868.057	128
1	2230	15987.289	129
1	2244	16053.834	130
1	2254	16071.503	131
1	2283	16200.216	132
1	2285	16201.228	133
1	2302	16302.261	132
1	2306	16314.307	133
1	2326	16468.626	134
1	2339	16593.988	135
1	2351	16659.259	136
1	2357	16694.139	137
1	2373	16892.418	138
1	2379	16967.976	139
1	2385	16997.366	140
1	2402	17118.048	141
1	2421	17369.156	142
1	2444	17508.974	141
1	2449	17547.858	142
1	2455	17571.757	143
1	2459	17588.956	144
1	2490	17781.343	145
1	2503	17841.841	146
1	2528	18065.397	147
1	2541	18171.596	148
1	2551	18210.093	149
1	2570	18384.515	150
1	2572	18408.979	151
1	2581	18454.809	150
1	2620	18722.297	151
1	2624	18735.421	152
1	2650	18870.178	151
1	2654	18880.64	152
1	2669	18964.634	153
1	2697	19271.814	152
1	2705	19344.279	153
1	2715	19404.719	154
1	2735	19607.43	155
1	2757	19722.85	154
1	2761	19723.956	155
1	2770	19766.875	156
1	2774	19809.38	155
1	2778	19822.65	156
1	2787	19877.515	157
1	2793	19935.147	158
1	2814	20081.012	159
1	2841	20251.932	160
1	2843	20273.425	159
1	2864	20433.407	160
1	2887	20501.573	161
1	2898	20622.982	162
1	2922	20698.548	163
1	2941	20790.624	164
1	2943	20795.103	165
1	2957	20900.45	166
1	2959	20914.46	165
1	2973	20984.449	166
1	2985	21075.712	167
1	2989	21123.672	168
1	2999	21209.472	169
1	3015	21518.4	170
1	3021	21544.58	171
1	3042	21617.498	172
1	3051	21709.056	173
1	3074	21991.993	174
1	3082	22060.617	175
1	3088	22079.521	176
1	3121	22361.168	177
1	3136	22438.05	178
1	3148	22556.431	179
1	3162	22616.863	180
1	3180	22668.967	181
1	3190	22757.186	182
1	3196	22796.463	181
1	3213	22888.959	182
1	3239	23027.459	183
1	3260	23167.902	184
1	3282	23310.078	185
1	3297	23429.952	186
1	3314	23535.178	187
1	3324	23630.797	188
1	3336	23788.656	189
1	3338	23790.799	188
1	3344	23818.266	189
1	3355	23891.564	190
1	3367	23979.205	191
1	3374	24040.283	192
1	3394	24258.574	191
1	3399	24310.347	192
1	3409	24450.601	193
1	3423	24505.615	194
1	3443	24606.011	195
1	3449	24695.631	196
1	3451	24696.126	195
1	3464	24788.116	196
1	3480	24870.095	195
1	3484	24891.432	196
1	3493	24979.806	197
1	3499	25036.884	198
1	3509	25197.366	197
1	3525	25388.987	198
1	3536	25443.592	199
1	3542	25504.074	200
1	3548	25559.574	201
1	3571	25662.247	202
1	3599	25818.458	201
1	3605	25865.727	202
1	3618	25978.628	203
1	3627	26089.626	204
1	3637	26179.356	205
1	3651	26273.043	206
1	3666	26461.106	207
1	3674	26620.891	208
1	3701	26797.417	209
1	3704	26802.621	208
1	3710	26817.102	209
1	3717	26899.642	210
1	3750	27104.136	211
1	3764	27204.971	212
1	3766	27212.241	211
1	3770	27217.637	212
1	3779	27291.205	213
1	3787	27310.984	212
1	3809	27481.373	213
1	3820	27549.834	214
1	3841	27719.536	215
1	3845	27737.597	216
1	3857	27790.371	217
1	3865	27850.738	218
1	3875	27991.054	219
1	3877	28026.844	218
1	3888	28098.281	219
1	3907	28159.715	220
1	3920	28251.316	221
1	3933	28322.706	222
1	3965	28618.737	223
1	3967	28622.175	222
1	3977	28672.722	223
1	3989	28797.674	224
1	3991	28819.077	225
1	4007	28954.707	226
1	4045	29232.397	227
1	4065	29333.605	228
1	4075	29466.164	229
1	4092	29574.422	230
1	4108	29627.572	231
1	4130	29744.189	232
1	4136	29844.17	233
1	4153	30017.713	234
1	4185	30194.506	235
1	4190	30239.492	234
1	4196	30261.878	235
1	4213	30344.185	236
1	4225	30530.417	237
1	4248	30749.986	238
1	4263	30861.534	239
1	4273	31029.548	240
1	4283	31144.107	239
1	4290	31153.067	240
1	4297	31175.37	241
1	4316	31280.35	242
1	4320	31321.14	243
1	4328	31385.752	242
1	4332	31400.058	243
1	4336	31409.914	244
1	4346	31495.153	243
1	4353	31534.677	244
1	4365	31591.754	245
1	4376	31635.552	246
1	4388	31661.567	247
1	4402	31783.679	248
1	4410	31965.646	249
1	4422	32013.357	250
1	4439	32141.725	251
1	4441	32166.911	250
1	4446	32220.625	251
1	4452	32244.932	252
1	4480	32365.564	253
1	4488	32407.12	254
1	4518	32668.669	255
1	4533	32811.404	256
1	4535	32812.116	257
1	4545	32942.513	258
1	4584	33219.364	259
1	4588	33315.457	260
1	4600	33434.911	261
1	4606	33471.62	262
1	4638	33725.416	263
1	4646	33741.024	264
1	4656	33791.672	265
1	4664	33855.102	266
1	4670	33912.772	267
1	4686	34034.944	268
1	4696	34150.413	269
1	4713	34249.859	270
1	4726	34377.983	271
1	4736	34483.565	272
1	4753	34571.848	273
1	4761	34610.627	274
1	4778	34736.416	275
1	4780	34766.819	274
1	4786	34771.497	275
1	4804	34865.034	276
1	4819	34985.184	277
1	4837	35155.555	278
1	4851	35194.36	277
1	4856	35218.761	278
1	4868	35240.825	279
1	4911	35505.765	278
1	4915	35519.792	279
1	4920	35569.225	278
1	4924	35589.886	279
1	4927	35602.391	280
1	4940	35742.57	281
1	4952	35836.559	282
1	4967	35912.796	283
1	4979	36053.877	284
1	4991	36137.051	285
1	4993	36142.738	284
1	4998	36175.344	285
1	5002	36218.113	286
1	5025	36389.522	287
1	5031	36470.195	288
1	5039	36539.89	289
1	5058	36648.308	290
1	5068	36738.949	291
1	5080	36913.369	292
1	5084	36922.022	291
1	5088	36923.869	292
1	5098	36941.982	293
1	5116	37082.17	294
1	5120	37091.288	295
1	5139	37248.313	296
1	5143	37285.081	295
1	5149	37304.973	296
1	5158	37357.313	297
1	5171	37444.957	298
1	5190	37525.944	297
1	5198	37580.476	298
1	5202	37622.313	299
1	5214	37745.157	300
1	5220	37778.437	301
1	5230	37825.852	302
1	5248	38042.105	303
1	5256	38073.483	304
1	5264	38123.077	305
1	5279	38272.097	306
1	5293	38301.099	307
1	5301	38433.973	308
1	5311	38474.539	309
1	5317	38513.388	310
1	5328	38600.848	309
1	5332	38613.027	310
1	5355	38721.196	309
1	5367	38777.814	310
1	5369	38790.167	311
1	5375	38794.438	310
1	5382	38887.796	311
1	5408	39058.237	312
1	5414	39138.073	313
1	5428	39229.475	314
1	5437	39285.283	315
1	5462	39458.917	316
1	5472	39480.084	317
1	5480	39528.56	316
1	5499	39593.805	317
1	5511	39685.471	318
1	5539	39814.159	319
1	5565	39977.819	320
1	5582	40101.198	321
1	5584	40115.706	322
1	5594	40178.339	321
1	5599	40221.896	322
1	5603	40233.593	323
1	5613	40291.072	324
1	5623	40358.425	325
1	5631	40427.873	326
1	5645	40467.498	327
1	5660	40563.443	328
1	5685	40735.255	329
1	5700	40847.843	330
1	5702	40853.812	331
1	5721	41009.373	332
1	5742	41153.989	333
1	5748	41185.391	334
1	5756	41231.662	335
1	5775	41356.357	336
1	5790	41464.929	335
1	5800	41523.967	336
1	5813	41600.272	337
1	5829	41715.48	338
1	5844	41815.528	339
1	5859	41883.658	338
1	5870	41923.447	339
1	5877	41947.905	340
1	5887	42015.755	341
1	5889	42031.6	342
1	5908	42219.433	343
1	5922	42453.302	344
1	5928	42566.66	345
1	5940	42640.657	346
1	5946	42712.556	347
1	5984	42986.683	348
1	5991	43123.584	349
1	5997	43215.928	350
1	6015	43349.699	351
1	6019	43404.261	352
1	6042	43613.567	353
1	6050	43756.82	354
1	6063	43844.046	353
1	6067	43857.919	354
1	6086	43988.254	355
1	6108	44218.84	356
1	6116	44282.055	357
1	6133	44452.342	358
1	6165	44652.271	359
1	6167	44664.131	360
1	6171	44698.75	359
1	6182	44762.211	360
1	6198	44917.607	361
1	6237	45152.04	362
1	6239	45157.95	363
1	6267	45412.57	362
1	6271	45420.313	363
1	6278	45525.975	364
1	6288	45636.808	365
1	6290	45642.401	366
1	6313	45866.455	367
1	6321	45899.886	366
1	6325	45900.689	367
1	6329	45906.746	368
1	6333	45925.87	369
1	6348	46015.423	370
1	6367	46113.456	371
1	6373	46144.294	372
1	6389	46305.746	373
1	6406	46421.3	374
1	6423	46607.864	375
1	6429	46667.638	376
1	6439	46793.418	377
1	6454	46871.959	378
1	6480	47039.154	379
1	6486	47062.249	380
1	6510	47226.514	381
1	6524	47350.715	382
1	6536	47415.341	383
1	6554	47501.936	384
1	6583	47740.674	385
1	6588	47762.402	386
1	6618	48016.311	387
1	6624	48075.096	388
1	6648	48239.134	389
1	6656	48322.502	390
1	6696	48598.308	391
1	6698	48602.456	390
1	6704	48628.14	391
1	6711	48708.162	390
1	6715	48712.064	391
1	6724	48749.977	392
1	6726	48754.544	391
1	6730	48760.291	392
1	6739	48846.181	393
1	6745	48875.469	394
1	6762	49006.898	395
1	6774	49092.414	396
1	6795	49166.62	395
1	6800	49171.315	396
1	6807	49261.314	397
1	6831	49393.229	396
1	6852	49475.246	397
1	6867	49530.06	398
1	6880	49648.623	399
1	6890	49693.674	400
1	6894	49731.858	401
1	6922	50032.008	400
1	6927	50076.272	401
1	6931	50103.647	402
1	6941	50170.414	403
1	6943	50177.921	404
1	6962	50312.184	405
1	6985	50538.701	406
1	6995	50574.52	405
1	6999	50580.103	406
1	7001	50596.765	407
1	7015	50720.903	408
1	7019	50739.18	407
1	7023	50740.912	408
1	7050	50904.124	407
1	7054	50909.678	408
1	7056	50913.347	409
1	7060	50932.066	410
1	7073	50992.133	411
1	7081	51061.272	412
1	7091	51097.463	411
1	7120	51289.589	412
1	7135	51412.598	413
1	7147	51537.588	414
1	7159	51641.471	413
1	7164	51671.427	414
1	7187	51791.726	415
1	7189	51800.459	416
1	7215	52020.503	417
1	7234	52117.751	418
1	7262	52422.668	419
1	7276	52462.464	420
1	7288	52516.796	421
1	7305	52643.815	422
1	7319	52728.341	421
1	7326	52832.954	422
1	7338	52963.436	423
1	7342	52996.539	422
1	7351	53053.625	423
1	7353	53070.507	424
1	7368	53156.27	423
1	7374	53180.991	424
1	7379	53237.358	425
1	7387	53309.755	426
1	7408	53412.792	425
1	7412	53426.002	426
1	7424	53540.585	427
1	7434	53573.016	428
1	7447	53723.601	429
1	7463	53865.539	430
1	7467	53872.077	431
1	7476	53949.613	430
1	7485	54030.731	431
1	7508	54153.705	432
1	7520	54216.17	431
1	7524	54217.977	432
1	7541	54387.572	431
1	7545	54397.768	432
1	7573	54736.26	433
1	7585	54809.842	434
1	7589	54844.753	435
1	7609	54995.82	434
1	7615	55004.036	435
1	7620	55020.382	436
1	7643	55076.574	437
1	7663	55192.72	438
1	7667	55223.745	437
1	7676	55258.893	438
1	7680	55290.14	439
1	7715	55544.245	440
1	7724	55621.529	439
1	7731	55680.113	440
1	7742	55758.977	441
1	7750	55821.993	440
1	7769	55975.541	441
1	7773	55994.333	442
1	7797	56196.501	443
1	7818	56409.407	444
1	7824	56521.661	443
1	7834	56661.711	444
1	7836	56669.096	445
1	7863	56840.25	446
1	7893	57055.588	447
1	7905	57214.173	448
1	7915	57275.25	449
1	7925	57333.742	450
1	7931	57402.709	451
1	7945	57463.02	452
1	7966	57589.718	453
2	5	17.971	0
2	134	1121.321	44.709
2	170	1280.187	26.328
2	267	1846.493	59.986
2	278	1879.082	3.051
2	378	2578.162	48.055
2	391	2626.974	5.851
2	460	3237.691	47.214
2	544	3925.182	34.436
2	646	4695.123	73.076
2	895	6461.526	90.385
2	923	6569.058	73.894
2	954	6782.43	2.885
2	1027	7151.186	23.377
2	1165	8334.336	71.56
2	1505	10916.49	16.92
2	1668	12145.501	54.358
2	1703	12458.997	63.207
2	1815	13284.466	20.59
2	1825	13326.686	62.81
2	2022	14706.004	126.093
2	2207	15910.911	30.693
2	2269	16184.16	42.038
2	2291	16232.203	35.359
2	2308	16324.576	91.308
2	2391	17081.451	0.51
2	2423	17370.829	13.317
2	2481	17732.375	55.553
2	2592	18520.943	204.742
2	2687	19224.354	58.152
2	2707	19375.202	209
2	2718	19410.554	30.972
2	2859	20340.414	16.533
2	2868	20446.185	4.152
2	3109	22318.831	114.78
2	3125	22391.648	50.41
2	3266	23209.864	93.212
2	3363	23974.414	48.948
2	3385	24092.751	95.863
2	3428	24520.125	52.815
2	3468	24820.34	1.209
2	3556	25612.145	36.034
2	3577	25716.097	62.945
2	3586	25759.892	33.464
2	3593	25799.753	33.058
2	3607	25920.671	153.976
2	3793	27347.155	89.507
2	3890	28117.269	22.382
2	4016	29017.019	8.401
2	4038	29184.93	75.916
2	4051	29239.948	130.934
2	4119	29681.227	57.549
2	4339	31436.032	64.728
2	4367	31591.776	8.885
2	4466	32326.625	83.945
2	4507	32624.678	35.164
2	4698	34184.849	99.613
2	4715	34283.203	81.278
2	4799	34828.838	14.442
2	4858	35219.882	111.781
2	4873	35292.241	62.439
2	4958	35873.466	6.526
2	5045	36574.396	6.329
2	5128	37118.051	5.275
2	5268	38146.856	63.759
2	5359	38745.523	116.956
2	5484	39540.955	62.182
2	5704	40860.12	42.121
2	5723	41034.157	67.023
2	5777	41356.392	10.555
2	5823	41697.387	92.567
2	5863	41896.03	123.237
2	6090	44036.835	244.383
2	6189	44793.579	201.46
2	6259	45382.569	44.118
2	6399	46396.9	62.395
2	6460	46897.66	28.761
2	6530	47390.004	38.975
2	6560	47587.273	158.55
2	6607	47938.8	32.961
2	6749	48915.734	118.918
2	6842	49443.068	134.557
2	6863	49529.871	12.511
2	7039	50836.976	46.114
2	7085	51081.447	15.037
2	7202	51927.795	17.399
2	7296	52600.706	61.353
2	7389	53314.998	27.349
2	7719	55577.753	47.949
2	7805	56314.551	7.924
2	7846	56733.821	6.771
2	7947	57484.884	79.546
3	5	17.971	0
3	30	262.346	1
3	50	344.727	2
3	67	521.887	3
3	86	643.457	4
3	94	728.42	5
3	106	790.714	6
3	132	1076.612	7
3	134	1121.321	6
3	142	1140.471	7
3	154	1221.364	8
3	162	1253.859	9
3	170	1280.187	8
3	185	1334.43	9
3	203	1441.775	10
3	242	1750.051	11
3	252	1786.507	12
3	267	1846.493	11
3	275	1876.031	12
3	278	1879.082	11
3	283	1885.266	12
3	290	1921.02	13
3	310	2089.308	14
3	320	2239.708	15
3	339	2410.013	16
3	358	2530.107	17
3	378	2578.162	16
3	382	2584.228	17
3	389	2621.123	18
3	391	2626.974	17
3	395	2642.303	18
3	411	2729.591	19
3	421	2857.67	20
3	452	3169.947	21
3	458	3190.477	22
3	460	3237.691	21
3	471	3349.422	22
3	473	3358.52	23
3	485	3449.181	24
3	501	3587.299	25
3	503	3605.458	26
3	528	3807.827	27
3	532	3890.746	28
3	544	3925.182	27
3	552	3976.757	28
3	560	4083.051	29
3	584	4212.49	30
3	607	4419.603	31
3	625	4508.185	32
3	633	4622.047	33
3	646	4695.123	32
3	656	4721.547	33
3	675	4785.773	34
3	681	4832.993	35
3	687	4854.241	36
3	714	5041.186	37
3	736	5203.834	38
3	738	5205.948	39
3	776	5490.657	40
3	801	5751.504	41
3	803	5755.826	42
3	827	6036.934	43
3	843	6097.706	44
3	851	6193.713	45
3	859	6228.505	46
3	880	6371.141	47
3	895	6461.526	46
3	899	6477.685	47
3	906	6495.164	48
3	923	6569.058	47
3	927	6569.348	48
3	929	6593.138	49
3	938	6646.797	50
3	950	6779.545	51
3	954	6782.43	50
3	958	6789.008	51
3	967	6860.699	52
3	982	6922.239	53
3	999	7005.97	54
3	1023	7127.809	55
3	1027	7151.186	54
3	1031	7172.308	55
3	1049	7274.777	56
3	1057	7388.284	57
3	1061	7414.54	58
3	1093	7738.66	59
3	1095	7744.647	60
3	1113	7945.356	61
3	1119	8058.557	62
3	1127	8114.354	63
3	1144	8212.461	64
3	1152	8262.776	65
3	1165	8334.336	64
3	1175	8366.547	65
3	1183	8455.972	66
3	1206	8582.155	67
3	1214	8704.77	68
3	1230	8772.481	69
3	1250	8929.508	70
3	1258	9013.914	71
3	1272	9092.449	72
3	1289	9176.423	73
3	1299	9296.977	74
3	1309	9489.921	75
3	1313	9524.077	76
3	1327	9648.876	77
3	1337	9698.573	78
3	1347	9808.152	79
3	1366	9984.353	80
3	1368	9990.204	81
3	1400	10211.671	82
3	1402	10218.039	83
3	1428	10304.585	84
3	1436	10385.801	85
3	1448	10439.059	86
3	1464	10602.924	87
3	1472	10680.926	88
3	1501	10899.57	89
3	1505	10916.49	88
3	1512	10978.006	89
3	1516	11001.699	90
3	1533	11132.896	91
3	1547	11204.968	92
3	1564	11317.912	93
3	1576	11409.469	94
3	1587	11529.731	95
3	1646	11891.969	96
3	1658	12091.143	97
3	1668	12145.501	96
3	1676	12173.062	97
3	1693	12395.79	98
3	1703	12458.997	97
3	1716	12514.005	98
3	1724	12542.237	99
3	1728	12589.248	100
3	1751	12830.8	101
3	1761	12914.691	102
3	1765	12930.511	103
3	1780	13080.313	104
3	1805	13241.619	105
3	1807	13263.876	106
3	1815	13284.466	105
3	1825	13326.686	104
3	1829	13330.775	105
3	1831	13349.841	106
3	1838	13407.051	107
3	1856	13551.686	108
3	1858	13566.823	109
3	1868	13718.574	110
3	1880	13887.196	111
3	1909	13992.525	112
3	1920	14112.883	113
3	1929	14170.588	114
3	1959	14311.286	115
3	1977	14451.3	116
3	2000	14579.911	117
3	2022	14706.004	116
3	2026	14724.56	117
3	2031	14751.479	118
3	2043	14817.803	119
3	2056	14931.847	120
3	2073	15057.154	121
3	2101	15343.518	122
3	2103	15373.177	123
3	2142	15532.23	124
3	2144	15562.703	125
3	2183	15760.163	126
3	2185	15760.979	127
3	2199	15880.218	128
3	2207	15910.911	127
3	2215	15949.175	128
3	2225	15977.203	129
3	2248	16058.845	130
3	2257	16089.941	131
3	2265	16142.122	132
3	2269	16184.16	131
3	2277	16196.844	132
3	2291	16232.203	131
3	2295	16233.268	132
3	2308	16324.576	131
3	2312	16327.124	132
3	2315	16344.898	133
3	2318	16390.258	134
3	2341	16594.681	135
3	2353	16679.191	136
3	2363	16781.718	137
3	2365	16787.569	138
3	2377	16934.804	139
3	2389	17080.941	140
3	2391	17081.451	139
3	2399	17100.807	140
3	2415	17235.135	141
3	2419	17357.512	142
3	2423	17370.829	141
3	2431	17398.161	142
3	2438	17467.691	143
3	2468	17676.822	144
3	2481	17732.375	143
3	2486	17778.343	144
3	2499	17817.259	145
3	2512	17959.911	146
3	2526	18063.199	147
3	2537	18146.027	148
3	2549	18203.011	149
3	2562	18316.201	150
3	2592	18520.943	149
3	2600	18546.5	150
3	2604	18580.27	151
3	2658	18896.033	152
3	2675	19025.912	153
3	2681	19166.202	154
3	2687	19224.354	153
3	2707	19375.202	152
3	2711	19379.582	153
3	2718	19410.554	152
3	2723	19455.668	153
3	2727	19483.495	154
3	2752	19678.307	155
3	2754	19686.104	156
3	2772	19772.067	157
3	2791	19934.524	158
3	2812	20075.426	159
3	2857	20323.881	160
3	2859	20340.414	159
3	2866	20442.033	160
3	2868	20446.185	159
3	2872	20454.786	160
3	2876	20462.123	161
3	2894	20606.733	162
3	2929	20725.018	163
3	2939	20785.325	164
3	2947	20851.548	165
3	2965	20937.408	166
3	2979	21008.243	167
3	2987	21120.962	168
3	3003	21244.845	169
3	3009	21450.857	170
3	3029	21573.983	171
3	3049	21702.863	172
3	3064	21865.194	173
3	3076	22037.167	174
3	3078	22048.186	175
3	3099	22204.051	176
3	3109	22318.831	175
3	3114	22333.268	176
3	3118	22341.238	177
3	3125	22391.648	176
3	3133	22420.547	177
3	3140	22505.013	178
3	3154	22584.055	179
3	3166	22631.825	180
3	3182	22673.95	181
3	3223	22940.261	182
3	3235	22996.695	183
3	3256	23116.652	184
3	3266	23209.864	183
3	3276	23255.801	184
3	3280	23288.225	185
3	3295	23394.857	186
3	3316	23544.735	187
3	3326	23633.896	188
3	3330	23648.446	189
3	3349	23860.337	190
3	3357	23925.466	191
3	3363	23974.414	190
3	3371	23996.888	191
3	3385	24092.751	190
3	3390	24131.415	191
3	3401	24319.927	192
3	3411	24467.31	193
3	3428	24520.125	192
3	3432	24534.057	193
3	3434	24545.12	194
3	3445	24609.721	195
3	3462	24786.932	196
3	3466	24819.131	197
3	3468	24820.34	196
3	3489	24925.712	197
3	3501	25135.8	198
3	3534	25414.187	199
3	3546	25543.495	200
3	3554	25576.111	201
3	3556	25612.145	200
3	3562	25638.214	201
3	3567	25653.152	202
3	3577	25716.097	201
3	3581	25717.299	202
3	3583	25726.428	203
3	3586	25759.892	202
3	3590	25766.695	203
3	3593	25799.753	202
3	3607	25920.671	201
3	3616	25976.516	202
3	3623	26030.424	203
3	3629	26095.181	204
3	3645	26244.759	205
3	3661	26349.034	206
3	3664	26452.146	207
3	3683	26725.897	208
3	3712	26832.029	209
3	3715	26847.032	210
3	3748	27082.665	211
3	3758	27152.924	212
3	3777	27257.648	213
3	3793	27347.155	212
3	3799	27375.05	213
3	3811	27487.887	214
3	3834	27687.837	215
3	3849	27742.122	216
3	3855	27776.412	217
3	3867	27872.743	218
3	3886	28094.887	219
3	3890	28117.269	218
3	3894	28119.361	219
3	3914	28214.361	220
3	3916	28224.452	221
3	3944	28542.265	222
3	3979	28682.826	223
3	3985	28727.269	224
3	3993	28866.914	225
3	4012	29008.618	226
3	4016	29017.019	225
3	4023	29065.217	226
3	4027	29109.014	227
3	4038	29184.93	226
3	4051	29239.948	225
3	4055	29246.759	226
3	4057	29253.096	227
3	4067	29340.363	228
3	4077	29473.872	229
3	4096	29595.416	230
3	4106	29623.678	231
3	4119	29681.227	230
3	4123	29684.647	231
3	4132	29810.785	232
3	4149	29959.819	233
3	4155	30043.134	234
3	4179	30189.49	235
3	4221	30482.465	236
3	4231	30597.038	237
3	4233	30599.681	238
3	4254	30799.028	239
3	4275	31064.219	240
3	4277	31091.019	241
3	4310	31216.337	242
3	4326	31371.304	243
3	4339	31436.032	242
3	4343	31460.363	243
3	4350	31525.127	244
3	4363	31582.891	245
3	4367	31591.776	244
3	4371	31603.178	245
3	4384	31650.726	246
3	4392	31696.38	247
3	4404	31914.082	248
3	4408	31943.889	249
3	4416	31981.533	250
3	4437	32127.791	251
3	4450	32242.68	252
3	4466	32326.625	251
3	4471	32335.242	252
3	4476	32363.049	253
3	4490	32412.239	254
3	4503	32589.514	255
3	4507	32624.678	254
3	4511	32626.969	255
3	4529	32774.934	256
3	4539	32838.818	257
3	4549	32976.826	258
3	4582	33190.558	259
3	4592	33347.264	260
3	4596	33407.92	261
3	4617	33552.692	262
3	4636	33724.511	263
3	4642	33737.403	264
3	4650	33746.717	265
3	4666	33901.084	266
3	4678	33975.038	267
3	4682	33993.631	268
3	4692	34085.236	269
3	4698	34184.849	268
3	4702	34185.479	269
3	4708	34201.925	270
3	4715	34283.203	269
3	4719	34286.973	270
3	4730	34432.791	271
3	4749	34558.033	272
3	4759	34595.729	273
3	4774	34706.915	274
3	4790	34781.378	275
3	4795	34814.396	276
3	4799	34828.838	275
3	4806	34877.324	276
3	4823	35010.734	277
3	4831	35108.101	278
3	4858	35219.882	277
3	4862	35222.686	278
3	4866	35229.802	279
3	4873	35292.241	278
3	4884	35323.648	279
3	4918	35556.568	280
3	4942	35801.514	281
3	4948	35828.356	282
3	4956	35866.94	283
3	4958	35873.466	282
3	4962	35884.859	283
3	4977	36053.609	284
3	4987	36103.097	285
3	5008	36249.686	286
3	5023	36381.942	287
3	5033	36474.344	288
3	5043	36568.067	289
3	5045	36574.396	288
3	5052	36611.761	289
3	5056	36635.359	290
3	5070	36768.636	291
3	5076	36860.52	292
3	5100	36943.061	293
3	5114	37077.852	294
3	5124	37112.776	295
3	5128	37118.051	294
3	5133	37153.783	295
3	5147	37304.307	296
3	5160	37359.697	297
3	5173	37458.339	298
3	5206	37650.508	299
3	5216	37769.32	300
3	5228	37808.26	301
3	5234	37855.127	302
3	5244	38003.145	303
3	5258	38083.097	304
3	5268	38146.856	303
3	5273	38208.891	304
3	5275	38213.058	305
3	5285	38281.504	306
3	5287	38285.598	307
3	5297	38367.132	308
3	5313	38490.191	309
3	5340	38628.567	310
3	5359	38745.523	309
3	5363	38747.554	310
3	5373	38793.039	311
3	5395	38945.917	312
3	5410	39072.765	313
3	5433	39268.103	314
3	5450	39387.569	315
3	5458	39449.313	316
3	5468	39478.773	317
3	5484	39540.955	316
3	5492	39565.152	317
3	5515	39726.515	318
3	5525	39742.854	319
3	5543	39828.263	320
3	5580	40094.416	321
3	5588	40146.778	322
3	5609	40278.889	323
3	5619	40311.699	324
3	5621	40348.455	325
3	5633	40438.381	326
3	5656	40519.741	327
3	5664	40586.132	328
3	5683	40726.151	329
3	5694	40817.999	330
3	5704	40860.12	329
3	5708	40889.749	330
3	5715	40967.134	331
3	5723	41034.157	330
3	5727	41036.602	331
3	5734	41134.823	332
3	5738	41144.502	333
3	5746	41178.936	334
3	5767	41289.903	335
3	5773	41345.837	336
3	5777	41356.392	335
3	5795	41476.289	336
3	5815	41604.82	337
3	5823	41697.387	336