version 2
run General-0-20220228-16:17:32-12236
attr configname General
attr datetime 20220228-16:17:32
attr experiment General
attr inifile omnetpp.ini
attr iterationvars $0=123
attr iterationvarsf 123-
attr measurement $0=123
attr network PolicyA
attr processid 12236
attr repetition 0
attr replication #0
attr resultdir results
attr runnumber 0
attr seedset 123

vector 0 PolicyA.queue "time spent on the queue" ETV
attr interpolationmode none
vector 1 PolicyA.queue "queue size after modification" ETV
attr interpolationmode none
vector 2 PolicyA.queue "queue size per minute" ETV
attr interpolationmode none
vector 3 PolicyA.queue "client processing order" ETV
attr interpolationmode none
vector 4 PolicyA.queue "processing time with client order" ETV
attr interpolationmode none
vector 5 PolicyA.queue "till processing order" ETV
attr interpolationmode none
vector 6 PolicyA.queue "client total time in the till" ETV
attr interpolationmode none
vector 7 PolicyA.source "number of clients entering the queue per timer interval" ETV
attr interpolationmode none
0	2	0	0
0	5	23.845	0
0	9	48.807	0
0	13	59.996	0
0	19	83.477	0
0	26	99.506	0
0	29	113.017	0
0	34	124.019	0
0	41	203.039	0
0	45	216.153	0
0	48	219.168	0
0	51	229.123	0
0	54	239.373	0
0	66	275.297	27.517
0	72	286.353	12.457
0	74	288.657	9.147
0	81	303.243	0
0	88	321.266	0
0	95	341.248	0
0	99	345.106	0
0	106	351.759	4.904
0	115	371.774	0
0	120	382.942	0
0	128	420.809	0
0	136	447.773	0
0	138	456.628	0
0	148	482.263	0
0	152	490.063	0
0	156	499.375	0.33
0	162	512.206	3.799
0	171	528.039	14.287
0	180	543.495	22.788
0	183	545.798	5.153
0	186	552.463	9.885
0	194	574.577	1.987
0	208	603.125	26.714
0	211	613.563	23.54
0	215	630.67	39.043
0	220	644.584	8.836
0	230	663.504	0
0	241	721.209	0
0	244	740.77	0
0	248	757.577	0
0	251	760.034	0
0	261	781.194	13.954
0	263	784.127	3.131
0	269	797.122	5.409
0	281	831.958	0
0	288	845.641	0
0	291	850.942	0
0	296	865.6	0
0	304	896.923	19.838
0	311	926.161	21.226
0	320	961.222	21.274
0	329	976.911	30.318
0	337	993.289	30.944
0	343	1010.317	36.609
0	350	1035.118	61.214
0	357	1067.519	86.363
0	364	1084.045	94.555
0	370	1127.972	127.69
0	379	1153.449	129.79
0	381	1155.322	90.001
0	386	1172.371	94.846
0	390	1179.631	79.974
0	394	1180.748	44.804
0	412	1231.779	89.527
0	417	1243.46	78.749
0	419	1246.763	66.949
0	421	1247.213	63.543
0	434	1275.131	89.724
0	446	1320.218	127.245
0	448	1321.57	84.249
0	453	1331.025	76.71
0	471	1405.836	146.748
0	476	1413.852	152.752
0	479	1425.487	149.671
0	481	1428.466	149.161
0	493	1451.071	121.486
0	500	1471.719	129.169
0	502	1472.783	112.184
0	507	1481.549	104.676
0	521	1544.138	163.803
0	527	1549.346	165.688
0	540	1580.731	168.208
0	544	1588.629	152.322
0	546	1589.883	151.278
0	554	1615.352	169.07
0	562	1686.618	216.785
0	565	1702.122	227.361
0	571	1714.171	229.558
0	577	1725.215	188.761
0	587	1768.442	222.005
0	589	1770.699	223.371
0	592	1784.309	231.72
0	595	1786.696	226.837
0	599	1789.244	219.819
0	607	1809.136	229.555
0	610	1812.66	217.146
0	621	1833.724	130.756
0	623	1838.514	134.358
0	627	1845.777	123.633
0	633	1865.02	119.342
0	637	1867.452	80.177
0	649	1883.497	67.448
0	659	1918.71	94.246
0	663	1934.272	68.457
0	671	1961.595	90.285
0	677	1974.271	100.155
0	687	1997.469	115.581
0	691	2021.74	118.184
0	694	2026.318	115.808
0	701	2052.581	108.004
0	708	2072.041	111.068
0	714	2091.462	120.772
0	722	2115.766	137.457
0	731	2136.656	149.6
0	738	2177.527	149.885
0	740	2180.134	117.157
0	744	2184.886	108.89
0	748	2197.893	107.169
0	752	2216.585	108.58
0	758	2224.694	101.946
0	761	2228.932	106.13
0	769	2249.044	75.757
0	771	2249.098	28.661
0	779	2274.786	38.771
0	785	2287.653	36.958
0	791	2307.549	10.416
0	797	2313.752	0
0	807	2346.65	0
0	811	2366.686	0
0	823	2407.976	0
0	825	2411.652	0
0	834	2430.013	0
0	841	2470.191	0
0	843	2471.845	0
0	852	2485.489	12.29
0	858	2506.458	22.075
0	872	2554.749	70.259
0	874	2555.154	66.087
0	879	2566.85	34.185
0	889	2598.04	49.504
0	893	2607.407	58.312
0	901	2625.343	69.204
0	921	2724.495	134.354
0	926	2732.372	136.694
0	936	2795.27	182.759
0	942	2821.016	196.277
0	950	2854.546	201.797
0	952	2858.352	191.359
0	958	2881.25	213.261
0	960	2883.548	204.775
0	966	2916.261	231.578
0	973	2936.942	215.702
0	975	2937.992	207.142
0	984	2982.954	248.475
0	986	2984.296	216.876
0	991	2995.431	194.687
0	1006	3027.716	203.793
0	1014	3052.407	221.165
0	1018	3064.946	135.542
0	1020	3067.508	94.344
0	1022	3073.053	76.054
0	1025	3073.73	72.735
0	1028	3077.8	65.272
0	1034	3089.535	76.023
0	1053	3137.169	94.685
0	1055	3142.037	97.778
0	1060	3146.678	59.788
0	1063	3155.509	51.075
0	1067	3169.17	51.755
0	1078	3188.406	69.825
0	1081	3193.548	47.184
0	1084	3204.798	30.576
0	1089	3222.086	36.245
0	1098	3251.75	26.674
0	1108	3276.741	0
0	1111	3290.028	0
0	1113	3293.008	0
0	1122	3321.504	4.512
0	1129	3343.39	15.354
0	1138	3368.703	0
0	1146	3382.34	0
0	1149	3396.033	0
0	1159	3429.421	0
0	1171	3480.475	0
0	1173	3480.624	0
0	1177	3501.939	0
0	1184	3517.98	0
0	1189	3530.403	0
0	1193	3547.857	0
0	1197	3558.887	0
0	1206	3584.187	0
0	1209	3593.715	0
0	1220	3617.186	0
0	1222	3617.781	0
0	1230	3644.624	8.894
0	1234	3648.297	0
0	1245	3687.524	16.831
0	1252	3709.771	26.27
0	1264	3728.29	20.569
0	1268	3743.511	20.144
0	1274	3761.424	36.16
0	1277	3769.736	43.09
0	1286	3854.031	126.187
0	1293	3864.54	115.506
0	1297	3877.204	17.304
0	1301	3888.917	26.851
0	1313	3923.563	54.25
0	1319	3931.654	38.273
0	1325	3958.445	43.419
0	1328	3960.421	44.388
0	1338	3984.349	60.499
0	1340	3987.918	32.635
0	1348	4004.743	42.177
0	1356	4026.828	53.164
0	1359	4036.899	40.476
0	1366	4049.984	42.955
0	1378	4100.806	60.917
0	1383	4113.02	65.379
0	1389	4158.903	73.907
0	1392	4167.909	67.572
0	1394	4185.516	82.867
0	1400	4192.909	0
0	1405	4196.692	0
0	1417	4219.732	0
0	1419	4221.647	0
0	1427	4245.641	4.365
0	1443	4273.375	24.528
0	1455	4310.191	47.818
0	1462	4328.462	65.119
0	1464	4331.107	64.918
0	1466	4334.355	62.633
0	1470	4347.33	73.022
0	1475	4366.987	90.671
0	1498	4423.181	135.045
0	1502	4424.381	135.409
0	1521	4490.621	168.666
0	1527	4506.012	138.985
0	1531	4516.985	149.074
0	1535	4528.044	150.812
0	1539	4551.911	166.37
0	1545	4567.937	166.887
0	1553	4593.4	172.663
0	1558	4611.417	190.569
0	1562	4614.756	191.415
0	1572	4632.518	195.909
0	1574	4633.508	166.193
0	1576	4638.963	162.242
0	1595	4704.018	225.69
0	1600	4730.067	249.698
0	1609	4764.48	280.098
0	1618	4804.372	307.595
0	1621	4808.654	297.155
0	1625	4818.639	241.201
0	1634	4839.303	259.765
0	1648	4863.494	251.882
0	1654	4896.761	279.444
0	1656	4904.017	274.983
0	1668	4972.342	318.16
0	1670	4977.052	312.3
0	1672	4978.45	309.459
0	1682	5002.155	315.718
0	1684	5005.649	296.196
0	1693	5036.079	286.508
0	1697	5049.049	298.967
0	1706	5066.585	267.613
0	1716	5089.82	276.902
0	1719	5097.371	274.882
0	1731	5124.772	300.886
0	1738	5143.802	303.32
0	1740	5158.626	315.3
0	1746	5176.617	327.895
0	1750	5181.568	323.469
0	1752	5188.914	323.026
0	1758	5196.239	247.738
0	1763	5214.394	246.023
0	1766	5218.992	240.371
0	1774	5231.533	232.785
0	1778	5253.286	227.237
0	1790	5316.794	261.741
0	1805	5445.191	381.033
0	1807	5445.814	377.975
0	1813	5486.617	403.511
0	1817	5492.076	405.435
0	1819	5493.132	390.568
0	1829	5540.559	426.537
0	1831	5541.577	420.515
0	1837	5569.46	428.402
0	1843	5581.363	403.892
0	1846	5588.42	389.858
0	1849	5600.075	339.975
0	1851	5602.721	336.454
0	1855	5611.274	274.166
0	1863	5631.448	259.738
0	1869	5651.309	270.891
0	1871	5658.511	214.447
0	1874	5659.894	142.658
0	1884	5684.972	126.484
0	1888	5700.903	89.297
0	1893	5704.99	37.106
0	1907	5738.001	67.471
0	1914	5748.199	41.153
0	1921	5765.677	43.124
0	1931	5802.499	78.269
0	1935	5813.58	89.195
0	1944	5841.754	100.659
0	1951	5892.63	146.424
0	1954	5898.665	144.798
0	1956	5899.475	124.409
0	1963	5909.151	125.047
0	1970	5922.749	113.522
0	1972	5923.612	94.593
0	1981	5937.938	103.809
0	1989	5964.885	62.219
0	1995	5979.845	71.521
0	2003	6019.15	103.743
0	2013	6041.996	124.975
0	2019	6056.587	128.719
0	2024	6061.056	88.662
0	2029	6088.438	72.044
0	2038	6119.917	95.231
0	2042	6128.686	90.115
0	2045	6135.752	97.11
0	2053	6179.315	132.642
0	2059	6198.766	138.98
0	2071	6233.794	121.537
0	2073	6236.765	123.438
0	2083	6276.02	138.162
0	2089	6287.341	107.008
0	2101	6351.488	132.235
0	2107	6384.87	165.078
0	2109	6390.659	158.169
0	2118	6416.144	160.809
0	2120	6418.088	148.343
0	2135	6466.615	182.114
0	2138	6473.602	171.775
0	2142	6494.948	159.7
0	2146	6501.796	157.909
0	2156	6540.171	187.682
0	2162	6556.171	155.212
0	2174	6583.956	172.767
0	2176	6585.942	146.64
0	2178	6586.352	136.758
0	2190	6608.454	153.313
0	2193	6620.63	109.983
0	2199	6641.669	110.135
0	2209	6680.823	129.152
0	2221	6739.534	181.463
0	2223	6743.555	172.46
0	2225	6748.778	173.067
0	2232	6764.037	181.69
0	2245	6802.062	208.871
0	2248	6804.322	203.208
0	2256	6834.826	190.924
0	2262	6841.263	172.629
0	2265	6846.574	164.001
0	2268	6847.599	128.909
0	2274	6858.528	134.216
0	2281	6878.112	128.349
0	2285	6883.504	119.45
0	2296	6905.525	134.307
0	2298	6919.233	120.722
0	2306	6941.392	127.265
0	2308	6942.584	111.104
0	2323	6988.616	148.079
0	2328	7000.204	143.039
0	2331	7016.713	155.301
0	2337	7044.562	157.665
0	2339	7046.735	145.776
0	2341	7050.454	122.418
0	2343	7051.615	103.751
0	2358	7084.055	128.037
0	2362	7100.442	128.763
0	2369	7126.001	130.64
0	2373	7138.85	64.694
0	2379	7152.996	76.474
0	2385	7159.632	55.647
0	2388	7171.929	63.914
0	2395	7188.286	45.911
0	2407	7208.977	54.095
0	2409	7211.903	26.76
0	2415	7249.5	58.935
0	2433	7308.341	113.828
0	2437	7324.196	68.232
0	2445	7347.372	80.113
0	2447	7350.226	74.024
0	2449	7352.663	71.89
0	2452	7357.103	61.706
0	2462	7368.493	60.372
0	2466	7379.067	37.84
0	2468	7379.418	37.593
0	2480	7409.397	45.091
0	2486	7432.796	66.001
0	2493	7449.22	80.596
0	2495	7451.252	62.825
0	2499	7465.317	19.111
0	2506	7473.332	0
0	2508	7478.063	0
0	2514	7486.188	6.726
0	2523	7504.002	0
0	2544	7582.751	0
0	2553	7636.78	0
0	2556	7644.328	0
0	2561	7657.323	0
0	2572	7705.419	0
0	2577	7729.979	0
0	2583	7764.692	0
0	2586	7776.44	0
0	2591	7793.847	0
0	2593	7794.587	0
0	2605	7822.496	0
0	2609	7830.588	0
0	2620	7889.382	0
0	2625	7898.587	0
0	2627	7902.236	0
0	2632	7921.17	0
0	2640	7950.574	0
0	2650	8002.492	0
0	2661	8042.299	0
0	2666	8056.542	0
0	2669	8069.784	0
0	2673	8076.829	0
0	2688	8128.609	0
0	2691	8136.41	0
0	2696	8169.223	0
0	2701	8209.614	0
0	2704	8220.121	0
0	2710	8242.633	0
0	2714	8263.971	0
0	2717	8274.377	0
0	2730	8289.818	9.49
0	2745	8335.332	53.817
0	2749	8355.754	72.514
0	2751	8359.482	70.122
0	2753	8361.679	45.892
0	2759	8379.974	61.267
0	2765	8395.782	66.904
0	2777	8424.478	91.511
0	2781	8449.958	55.488
0	2790	8491.769	95.128
0	2792	8493.419	77.15
0	2794	8494.91	35.016
0	2798	8504.596	35.398
0	2806	8528.416	3.357
0	2814	8534.888	3.246
0	2827	8597.356	63.635
0	2836	8613.048	77.301
0	2839	8633.086	47.295
0	2844	8652.069	51.453
0	2848	8662.491	52.556
0	2851	8678.463	66.218
0	2859	8701.436	0
0	2877	8756.911	44.913
0	2879	8758.639	24.964
0	2890	8774.579	40.761
0	2897	8807.032	67.59
0	2902	8825.938	85.201
0	2907	8842.706	101.704
0	2912	8856.164	93.778
0	2919	8876.042	113.167
0	2927	8915.057	148.716
0	2930	8921.559	130.503
0	2941	8955.616	116.388
0	2943	8960.573	108.67
0	2951	8977.353	106.635
0	2954	8987.246	82.085
0	2956	8992.578	66.297
0	2958	8995.38	63.794
0	2960	8998.713	56.832
0	2975	9021.57	49.893
0	2986	9052.279	51.153
0	2996	9090.12	85.374
0	2998	9092.499	68.783
0	3000	9095.752	66.107
0	3004	9106.216	52.17
0	3015	9145.672	73.051
0	3018	9163.67	43.535
0	3024	9184.467	0.738
0	3033	9212.289	0
0	3038	9220.33	0
0	3040	9222.213	0
0	3047	9234.892	10.562
0	3053	9245.238	0
0	3062	9271.618	0
0	3066	9276.216	0
0	3071	9283.187	0
0	3082	9334.882	34.959
0	3090	9362.812	0
0	3096	9381.852	0
0	3102	9396.535	0
0	3104	9397.658	0
0	3119	9486.476	0
0	3121	9491.501	0
0	3124	9495.615	0
0	3130	9522.648	27.031
0	3139	9536.894	11.931
0	3145	9567.134	34.03
0	3151	9585.232	9.265
0	3159	9618.216	25.399
0	3169	9630.422	10.305
0	3171	9630.559	5.656
0	3176	9646.045	17.056
0	3178	9649.445	10.494
0	3190	9685.037	7.936
0	3198	9737.77	28.523
0	3207	9794.728	0
0	3209	9802.023	0
0	3215	9832.421	0
0	3224	9882.163	0
0	3231	9921.488	6.729
0	3237	9933.653	8.348
0	3241	9955.378	22.825
0	3250	10007.37	23.698
0	3255	10020.435	0
0	3261	10050.679	0
0	3267	10068.76	0
0	3274	10087.968	7.564
0	3282	10134.418	0
0	3290	10151.364	3.953
0	3292	10154.336	3.881
0	3297	10169.659	0
0	3304	10188.776	2.751
0	3314	10210.585	19.09
0	3319	10219.943	0
0	3323	10224.928	0
0	3337	10250.231	23.077
0	3344	10292.812	57.867
0	3346	10296.742	58.6
0	3358	10334.778	84.788
0	3368	10380.686	81.922
0	3370	10385.89	78.566
0	3374	10399.233	91.218
0	3385	10463.73	109.967
0	3392	10486.436	113.53
0	3396	10494.548	83.393
0	3399	10498.424	39.636
0	3401	10499.689	34.345
0	3408	10508.544	40.284
0	3419	10537.146	45.437
0	3429	10556.766	48.47
0	3431	10558.399	24.131
0	3437	10587.024	51.681
0	3450	10643.53	102.5
0	3454	10662.263	106.35
0	3460	10699.393	98.996
0	3463	10700.501	91.182
0	3471	10728.558	87.276
0	3474	10734.603	73.548
0	3479	10748.913	37.262
0	3487	10772.388	44.923
0	3491	10779.999	29.233
0	3502	10801.564	34.031
0	3508	10827.751	43.354
0	3519	10873.059	74.38
0	3524	10894.518	67.55
0	3535	10924.861	95.56
0	3537	10932.37	95.709
0	3542	10940.63	58.035
0	3547	10959.936	62.066
0	3556	10974.398	67.494
0	3567	11031.481	114.83
0	3571	11040.772	91.583
0	3573	11042.885	72.846
0	3579	11059.218	88.417
0	3582	11062.182	62.835
0	3585	11069.8	55.482
0	3598	11084.449	28.418
0	3600	11084.821	14.081
0	3612	11134.75	63.297
0	3622	11189.954	111.784
0	3624	11192.802	111.532
0	3627	11199.277	86.253
0	3633	11212.613	59.324
0	3648	11294.228	134.242
0	3651	11307.346	102.163
0	3658	11329.364	114.982
0	3664	11353.843	128.114
0	3669	11362.39	93.577
0	3672	11371.969	64.057
0	3681	11397.965	81.886
0	3693	11443.96	89.609
0	3701	11477.106	102.924
0	3717	11532.497	153.386
0	3724	11542.935	131.088
0	3727	11559.386	135.423
0	3741	11600.538	139.253
0	3747	11626.875	165.138
0	3749	11629.499	142.604
0	3751	11638.443	150.804
0	3767	11687.458	198.984
0	3771	11696.727	207.461
0	3780	11719.079	215.295
0	3789	11747.208	211.957
0	3793	11752.429	211.611
0	3801	11780.346	217.758
0	3805	11796.024	220.921
0	3809	11812.948	226.427
0	3814	11833.839	237.008
0	3822	11849.56	226.625
0	3826	11857.334	216.196
0	3839	11911.138	248.851
0	3841	11914.735	240.627
0	3843	11919.676	223.791
0	3846	11921.976	212.885
0	3848	11928.708	219.058
0	3859	11948.569	227.309
0	3865	11959.822	237.913
0	3872	11970.238	218.157
0	3879	11992.72	216.048
0	3881	11996.394	155.375
0	3883	11996.649	152.956
0	3898	12053.332	189.974
0	3902	12063.495	187.917
0	3904	12065.966	160.599
0	3910	12102.225	168.181
0	3914	12111.184	174.946
0	3917	12115.867	158.262
0	3923	12138.477	164.366
0	3940	12245.429	202.827
0	3942	12255.041	205.346
0	3944	12258.933	152.358
0	3948	12267.962	73.287
0	3970	12369.898	172.564
0	3978	12378.809	165.945
0	3981	12390.678	172.239
0	3984	12392.87	120.753
0	3999	12424.357	149.635
0	4006	12460.769	143.54
0	4008	12464.179	130.863
0	4020	12521.131	166.967
0	4022	12529.546	165.828
0	4026	12531.614	159.977
0	4030	12543.566	171.331
0	4035	12561.652	185.463
0	4041	12581.219	182.997
0	4048	12608.575	197.775
0	4050	12615.432	201.123
0	4054	12620.291	199.871
0	4057	12623.603	194.411
0	4061	12634.51	143.673
0	4063	12634.721	120.787
0	4070	12647.173	116.756
0	4077	12661.472	21.309
0	4083	12676.088	30.932
0	4091	12702.514	0
0	4098	12730.427	0
0	4105	12742.882	0
0	4115	12784.545	0
0	4121	12795.634	0
0	4129	12846.746	0
0	4131	12849.234	0
0	4141	12867.596	0
0	4144	12870.056	0
0	4147	12890.685	0
0	4158	12951.669	0
0	4163	12956.309	0
0	4167	12962.816	0
0	4174	13006.381	22.249
0	4179	13013.213	3.869
0	4191	13085.034	42.442
0	4194	13115.453	69.294
0	4201	13145.263	16.24
0	4205	13153.602	0
0	4212	13171.405	0
0	4219	13193.341	4.22
0	4226	13208.258	0
0	4232	13229.697	0
0	4240	13278.313	31.031
0	4246	13286.177	0
0	4257	13308.363	9.806
0	4266	13351.97	51.171
0	4271	13376.095	72.773
0	4283	13429.998	126.634
0	4287	13437.747	129.311
0	4295	13454.813	85.441
0	4306	13496.704	119.372
0	4316	13517.459	123.28
0	4325	13537.428	134.592
0	4330	13544.381	108.968
0	4339	13582.088	137.038
0	4343	13594.092	145.418
0	4352	13635.419	157.337
0	4360	13659.199	169.504
0	4362	13664.325	167.314
0	4374	13702.943	204.347
0	4379	13722.016	215.077
0	4388	13756.147	236.086
0	4390	13765.158	245.012
0	4394	13767.572	234.847
0	4398	13772.73	229.031
0	4411	13812.582	262.744
0	4415	13817.803	210.454
0	4417	13829.02	209.946
0	4419	13829.337	178.433
0	4427	13846.396	190.859
0	4440	13891.489	224.583
0	4444	13920.729	247.488
0	4446	13922.555	236.965
0	4453	13935.759	211.587
0	4462	13970.64	216.712
0	4469	13990.559	223.705
0	4471	13997.732	203.601
0	4477	14013.888	200.161
0	4481	14032.414	199.769
0	4489	14074.477	226.856
0	4491	14085.162	199.929
0	4496	14107.646	177.595
0	4498	14108.002	172.161
0	4503	14120.411	176.743
0	4512	14152.061	166.13
0	4522	14183.321	170.95
0	4528	14214.58	97.743
0	4531	14220.391	83.701
0	4538	14255.925	99.664
0	4544	14263.262	103.211
0	4553	14293.12	93.665
0	4561	14300.73	55.479
0	4569	14317.837	60.501
0	4582	14366.229	93.494
0	4585	14368.85	79.528
0	4590	14384.185	90.498
0	4601	14422.019	122.959
0	4603	14431.212	131.598
0	4610	14459.614	144.01
0	4613	14461.181	112.01
0	4619	14477.634	125.535
0	4624	14502.497	141.031
0	4630	14517.021	133.799
0	4635	14528.618	139.341
0	4644	14562.35	148.31
0	4649	14576.414	130.018
0	4654	14585.686	72.547
0	4657	14593.527	65.739
0	4665	14621.822	70.33
0	4667	14625.026	67.922
0	4670	14631.974	46.942
0	4681	14650.706	49.089
0	4685	14658.138	12.971
0	4687	14661.719	11.848
0	4699	14699.33	33.064
0	4708	14711.861	35.555
0	4722	14782.339	76.73
0	4728	14821.536	115.063
0	4730	14822.506	102.117
0	4734	14839.875	101.303
0	4737	14840.788	73.999
0	4750	14911.108	128.915
0	4757	14935.799	130.905
0	4768	14952.244	101.743
0	4770	14953.83	44.554
0	4775	14967.149	49.648
0	4781	14978.629	55.472
0	4789	14998.384	60.78
0	4798	15035.222	87.887
0	4803	15037.529	87.024
0	4805	15042.621	85.76
0	4816	15090.555	112.255
0	4826	15126.963	140.825
0	4831	15169.77	151.34
0	4834	15181.463	144.125
0	4838	15198.847	143.876
0	4844	15216.798	121.224
0	4850	15240.899	143.668
0	4852	15248.621	131.775
0	4854	15251.809	41.929
0	4872	15306.147	21.945
0	4874	15311.276	12.403
0	4877	15317.579	17.929
0	4882	15329.258	24.999
0	4892	15352.154	32.866
0	4898	15368.721	28.434
0	4901	15376.855	35.998
0	4906	15395.982	0
0	4913	15404.273	0
0	4923	15439.438	0
0	4935	15507.452	0
0	4937	15510.177	0
0	4940	15517.901	0
0	4958	15606.252	0
0	4964	15652.182	0
0	4970	15666.6	0
0	4972	15667.788	0
0	4975	15670.217	0
0	4977	15677.555	0
0	4980	15678.635	0
0	4986	15695.25	0
0	5002	15750.384	26.817
0	5004	15754.552	30.86
0	5009	15760.49	0
0	5019	15817.654	46.272
0	5026	15836.309	0
0	5031	15841.007	0
0	5036	15864.1	0
0	5041	15881.576	4.161
0	5053	15901.299	16.026
0	5065	15948.537	61.152
0	5076	15997.069	97.824
0	5079	16010.126	95.142
0	5089	16031.411	107.903
0	5096	16056.335	122.905
0	5102	16078.08	129.471
0	5114	16113.82	127.557
0	5117	16133.01	136.953
0	5119	16135.469	123.18
0	5124	16145.655	118.306
0	5127	16158.492	130.858
0	5131	16169.537	129.855
0	5135	16181.26	104.301
0	5140	16199.25	106.297
0	5154	16230.3	131.107
0	5161	16262.131	154.296
0	5165	16284.171	83.749
0	5167	16296.993	73.15
0	5176	16319.302	91.017
0	5184	16341.154	102.984
0	5191	16348.926	42.784
0	5195	16365.581	48.116
0	5197	16369.951	35.41
0	5206	16391.209	47.495
0	5210	16397.98	51.746
0	5218	16407.713	26.212
0	5225	16430.629	37.667
0	5231	16441.81	38.862
0	5235	16463.371	56.052
0	5239	16480.773	52.262
0	5246	16503.981	0
0	5252	16520.076	14.401
0	5261	16570.203	0
0	5270	16620.263	0
0	5273	16627.729	0
0	5286	16678.485	0
0	5290	16692.478	0
0	5292	16699.184	0
0	5299	16707.766	0
0	5306	16725.073	0
0	5308	16725.697	0
0	5311	16731.444	0
0	5332	16815.499	0
0	5335	16829.08	0
0	5338	16848.483	0
0	5346	16876.339	0
0	5349	16886.644	0
0	5355	16906.268	1.912
0	5363	16936.878	14.974
0	5373	17000.031	0
0	5375	17005.514	0
0	5383	17030.837	0
0	5385	17031.143	0
0	5402	17079.988	42.167
0	5405	17094.601	51.845
0	5411	17111.487	56.573
0	5415	17121.857	56.945
0	5422	17138.809	40.436
0	5432	17204.083	74.916
0	5438	17237.863	106.83
0	5444	17256.152	64.383
0	5448	17266.991	57.075
0	5450	17267.472	17.471
0	5457	17284.301	18.067
0	5465	17317.976	30.774
0	5473	17357.102	28.89
0	5479	17398.409	0
0	5488	17432.897	0
0	5493	17439.924	0
0	5495	17440.846	0
0	5506	17467.376	7.686
0	5508	17472.251	8.647
0	5516	17484.874	0
0	5524	17516.64	0
0	5534	17535.687	0
0	5545	17579.841	0
0	5549	17592.859	0
0	5552	17597.37	0
0	5554	17602.683	0
0	5567	17650.262	0
0	5570	17669.606	0
0	5572	17677.213	0
0	5578	17685.201	0
0	5582	17692.543	0
0	5589	17702.042	0
0	5597	17729.858	0
0	5605	17754.043	5.872
0	5624	17852.593	0
0	5627	17868.913	0
0	5635	17910.608	0
0	5644	17957.306	0
0	5647	17966.516	0
0	5649	17969.61	0
0	5652	17980.806	0
0	5657	17988.934	0
0	5668	18015.327	0
0	5673	18031.65	0
0	5678	18075.831	0
0	5687	18087.93	9.67
0	5689	18091.452	9.13
0	5691	18091.456	7.432
0	5704	18138.155	10.533
0	5709	18165.012	0
0	5720	18188.412	0
0	5723	18192.669	0
0	5731	18238.018	0
0	5736	18244.261	0
0	5746	18283.254	0
0	5757	18351.785	0
0	5760	18354.173	0
0	5766	18376.617	0
0	5771	18402.231	0
0	5773	18411.977	0
0	5779	18434.029	0
0	5788	18473.17	0
0	5790	18477.114	0
0	5798	18501.626	2.099
0	5807	18523.665	0
0	5812	18538.323	0
0	5821	18579.212	0
0	5832	18624.265	0
0	5842	18690.924	0
0	5845	18705.615	0
0	5847	18711.338	0
0	5851	18725.149	0
0	5855	18733.198	0
0	5861	18741.48	4.153
0	5868	18760.95	23.185
0	5883	18791.606	26.078
0	5887	18800.497	23.972
0	5896	18815.969	36.016
0	5898	18819.62	30.972
0	5901	18822.68	22.099
0	5906	18835.091	33.695
0	5914	18857.623	47.16
0	5926	18896.683	0
0	5938	18942.551	0
0	5940	18942.868	0
0	5948	18977.449	0
0	5953	18979.406	0
0	5959	18999.928	0
0	5965	19034.332	0
0	5979	19081.848	0
0	5981	19085.412	0
0	5988	19119.428	0
0	5992	19139.637	0
0	6002	19251.057	0
0	6004	19259.724	0
0	6009	19282.421	0
0	6012	19291.107	0
0	6020	19323.504	0
0	6026	19333.659	0
0	6033	19359.639	0
0	6047	19416.093	0
0	6049	19417.761	0
0	6053	19426.08	0
0	6055	19428.549	0
0	6057	19432.848	0
0	6071	19476.913	0
0	6082	19513.251	0
0	6086	19534.416	0
0	6097	19576.265	0
0	6100	19577.926	0
0	6106	19589.626	0
0	6109	19609.913	0
0	6118	19621.682	0
0	6125	19650.499	0
0	6130	19661.27	0
0	6135	19676.239	0
0	6140	19689.36	0
0	6144	19701.288	0
0	6148	19707.493	0
0	6160	19741.568	0
0	6163	19755.074	0
0	6169	19771.914	6.468
0	6180	19801.619	21.567
0	6186	19806.485	6.909
0	6191	19831.879	26.787
0	6196	19850.826	31.531
0	6203	19876.881	0
0	6208	19891.273	7.885
0	6213	19898.088	0
0	6217	19903.558	0
0	6227	19936.504	0
0	6236	19971.539	0
0	6241	19989.367	0
0	6253	20009.621	0
0	6256	20020.946	0
0	6259	20028.331	0
0	6267	20048.749	0
0	6269	20056.32	0
0	6276	20073.524	9.08
0	6283	20095.509	6.46
0	6301	20173.156	0
0	6304	20185.604	0
0	6307	20192.123	0
0	6309	20193.326	0
0	6318	20209.475	0
0	6321	20217.02	0
0	6324	20220.177	0
0	6334	20255.02	0
0	6342	20281.386	2.883
0	6354	20313.836	24.682
0	6356	20323.198	33.96
0	6361	20334.137	43.445
0	6373	20372.407	74.727
0	6389	20408.337	73.544
0	6395	20424.282	75.823
0	6402	20441.567	73.654
0	6404	20441.592	53.246
0	6412	20459.881	57.675
0	6416	20472.9	70.498
0	6427	20508.56	105.424
0	6432	20520.132	111.988
0	6435	20530.184	114.367
0	6447	20555.855	126.608
0	6455	20602.207	161.414
0	6458	20607.383	149.608
0	6460	20608.231	117.921
0	6469	20625.218	126.485
0	6476	20635.028	125.3
0	6479	20640.921	98.464
0	6496	20696.678	144.052
0	6505	20749.894	195.846
0	6507	20756.973	201.392
0	6516	20785.306	176.605
0	6518	20785.445	172.26
0	6526	20806.001	192.592
0	6534	20835.932	203.608
0	6544	20867.191	224.977
0	6555	20895.156	232.184
0	6557	20895.292	213.086
0	6559	20902.549	206.915
0	6564	20912.057	204.562
0	6572	20945.688	224.79
0	6574	20951.14	188.924
0	6577	20957.255	186.382
0	6581	20961.94	159.058
0	6589	20990.252	175.678
0	6598	21027.646	177.826
0	6613	21067.387	208.014
0	6616	21076.895	213.232
0	6618	21080.5	204.746
0	6621	21081.874	205.196
0	6627	21090.674	203.83
0	6629	21094.338	127.157
0	6642	21124.364	98.834
0	6650	21167.178	136.274
0	6656	21177.473	143.341
0	6659	21180.675	146.535
0	6662	21183.442	134.166
0	6669	21190.396	123.025
0	6677	21212.693	122.684
0	6689	21277.219	179.868
0	6703	21309.646	204.887
0	6705	21310.757	183.859
0	6708	21313.799	140.41
0	6726	21350.954	163.998
0	6734	21384.806	194.59
0	6738	21398.468	192.451
0	6742	21410.694	164.576
0	6748	21424.806	172.875
0	6758	21444.216	164.985
0	6764	21455.248	162.252
0	6770	21472.061	178.16
0	6777	21490.181	186.161
0	6779	21493.164	184.448
0	6782	21502.201	187.327
0	6788	21511.796	195.453
0	6792	21525.234	200.705
0	6794	21529.94	200.461
0	6805	21546.512	207.329
0	6811	21554.515	205.417
0	6824	21609.115	253.798
0	6831	21647.96	243.082
0	6839	21705.109	275.715
0	6843	21727.014	295.906
0	6849	21760.512	316.799
0	6856	21790.617	337.051
0	6859	21798.062	341.441
0	6872	21853.296	380.236
0	6874	21854.289	350.223
0	6885	21901.635	366.619
0	6888	21936.229	389.623
0	6890	21936.436	382.762
0	6894	21945.829	341.139
0	6898	21956.446	324.958
0	6903	21977.154	331.449
0	6907	21979.514	328.039
0	6921	22079.372	331.813
0	6926	22085.66	297.521
0	6928	22089.373	290.609
0	6944	22137.693	334.83
0	6951	22143.05	298.15
0	6955	22151.249	281.526
0	6959	22164.121	276.831
0	6962	22165.997	186.64
0	6970	22189.533	150.876
0	6981	22236.414	191.471
0	6985	22248.389	167.531
0	6991	22258.715	166.258
0	6995	22267.472	170.715
0	6997	22273.271	173.66
0	7007	22305.746	177.459
0	7012	22318.952	179.887
0	7016	22329.917	189.863
0	7019	22337.134	177.407
0	7024	22350.053	167.559
0	7028	22359.263	140.114
0	7034	22370.031	130.802
0	7040	22383.848	126.798
0	7043	22384.271	110.187
0	7045	22388.141	77.076
0	7048	22390.938	36.842
0	7066	22439.753	59.566
0	7069	22446.678	41.988
0	7074	22482.785	49.883
0	7078	22496.514	59.924
0	7092	22555.458	0
0	7097	22594.925	0
0	7103	22624.065	0
0	7106	22627.671	0
0	7110	22644.008	0
0	7115	22656.068	8.649
0	7123	22681.66	10.275
0	7139	22730.52	33.722
0	7143	22740.244	39.493
0	7145	22743.591	42.042
0	7154	22764.128	55.013
0	7165	22792.714	66.063
0	7175	22820.52	68.4
0	7181	22828.057	72.906
0	7194	22858.418	78.178
0	7199	22870.722	86.879
0	7209	22890.362	98.33
0	7211	22901.101	98.544
0	7217	22916.006	102.114
0	7219	22918.892	94.089
0	7226	22925.45	98.223
0	7239	22994.923	165.739
0	7241	22999.736	160.812
0	7247	23023.245	170.191
0	7249	23026.873	173.626
0	7258	23061.357	183.314
0	7266	23100.683	222.409
0	7270	23112.552	223.896
0	7274	23129.407	207.056
0	7277	23135.281	194.7
0	7284	23163.185	199.433
0	7289	23175.612	169.183
0	7303	23245.063	192.719
0	7305	23253.042	186.815
0	7309	23257.196	135.104
0	7322	23290.183	117.879
0	7324	23293.073	88.631
0	7327	23298.245	91.93
0	7332	23311.703	72.082
0	7342	23349.608	91.051
0	7346	23354.149	82.362
0	7348	23367.992	92.669
0	7357	23403.817	93.902
0	7364	23438.93	101.917
0	7366	23439.055	45.926
0	7376	23467.296	37.766
0	7381	23491.183	38.456
0	7383	23492.617	27.117
0	7403	23553.08	58.31
0	7407	23583.505	84.525
0	7409	23583.719	72.032
0	7414	23586.618	69.09
0	7416	23586.739	38.026
0	7427	23598.429	48.75
0	7442	23625.903	40.989
0	7450	23650.306	60.102
0	7460	23666.188	75.957
0	7462	23675.41	82.914
0	7472	23700.939	99.422
0	7479	23730.988	122.428
0	7482	23738.647	116.469
0	7484	23743.526	120.956
0	7487	23753.04	125.787
0	7489	23754.364	103.914
0	7496	23765.928	101.382
0	7500	23776.533	110.564
0	7504	23783.741	104.084
0	7512	23796.176	114.624
0	7519	23804.437	97.557
0	7523	23814.177	31.708
0	7530	23827.926	32.871
0	7539	23840.939	40.612
0	7542	23846.605	18.898
0	7548	23870.806	36.687
0	7553	23876.869	39.163
0	7556	23882.801	7.424
0	7565	23910.341	0
0	7576	23935.105	0
0	7594	24023.6	0
0	7603	24088.891	0
0	7605	24091.884	0
0	7616	24137.496	0
0	7619	24147.039	0
0	7622	24160.061	0
0	7631	24200.594	0
0	7634	24204.891	0
0	7636	24216.811	0
0	7643	24251.047	0
0	7645	24253.636	0
0	7659	24320.932	0
0	7662	24338.923	0
0	7665	24346.709	0
0	7667	24351.924	0
0	7680	24373.502	0
0	7683	24380.301	0
0	7691	24442.808	0
0	7698	24458.028	15.064
0	7703	24488.496	39.279
0	7717	24543.182	32.106
0	7719	24543.849	30.063
0	7723	24558.742	31.555
0	7725	24570.611	42.384
0	7731	24579.79	0
0	7742	24601.129	21.296
0	7750	24617.116	31.709
0	7758	24675.094	61.748
0	7762	24690.631	40.48
0	7775	24749.035	59.798
0	7788	24799.57	100.641
0	7791	24804.922	89.817
0	7793	24810.896	82.241
0	7796	24818.46	64.041
0	7799	24822.802	60.824
0	7816	24933.06	154.027
0	7820	24935.796	148.583
0	7830	24977.071	137.165
0	7834	24978.622	110.743
0	7841	24987.258	82.105
0	7843	25005.142	71.946
0	7847	25015.981	66.359
0	7860	25065.799	108.084
0	7862	25070.515	92.188
0	7871	25098.39	114.644
0	7878	25127.796	72.088
0	7882	25144.981	88.535
0	7888	25151.564	76.204
0	7891	25162.765	68.955