version 2
run General-0-20220624-05:22:27-24584
attr configname General
attr datetime 20220624-05:22:27
attr experiment General
attr inifile omnetpp.ini
attr iterationvars $0=456
attr iterationvarsf 456-
attr measurement $0=456
attr network PolicyB
attr processid 24584
attr repetition 0
attr replication #0
attr resultdir results
attr runnumber 0
attr seedset 456

vector 0 PolicyB.queue5 "time spent on the queue" ETV
attr interpolationmode none
vector 1 PolicyB.queue5 "queue size after modification" ETV
attr interpolationmode none
vector 2 PolicyB.queue4 "time spent on the queue" ETV
attr interpolationmode none
vector 3 PolicyB.queue4 "queue size after modification" ETV
attr interpolationmode none
vector 4 PolicyB.queue6 "time spent on the queue" ETV
attr interpolationmode none
vector 5 PolicyB.queue6 "queue size after modification" ETV
attr interpolationmode none
vector 6 PolicyB.queue8 "time spent on the queue" ETV
attr interpolationmode none
vector 7 PolicyB.queue8 "queue size after modification" ETV
attr interpolationmode none
vector 8 PolicyB.queue3 "time spent on the queue" ETV
attr interpolationmode none
vector 9 PolicyB.queue3 "queue size after modification" ETV
attr interpolationmode none
vector 10 PolicyB.queue2 "time spent on the queue" ETV
attr interpolationmode none
vector 11 PolicyB.queue2 "queue size after modification" ETV
attr interpolationmode none
vector 12 PolicyB.queue4 "processing time with client order" ETV
attr interpolationmode none
vector 13 PolicyB.queue5 "processing time with client order" ETV
attr interpolationmode none
vector 14 PolicyB.queue6 "processing time with client order" ETV
attr interpolationmode none
vector 15 PolicyB.queue9 "time spent on the queue" ETV
attr interpolationmode none
vector 16 PolicyB.queue9 "queue size after modification" ETV
attr interpolationmode none
vector 17 PolicyB.queue8 "processing time with client order" ETV
attr interpolationmode none
vector 18 PolicyB.queue0 "time spent on the queue" ETV
attr interpolationmode none
vector 19 PolicyB.queue0 "queue size after modification" ETV
attr interpolationmode none
vector 20 PolicyB.queue9 "processing time with client order" ETV
attr interpolationmode none
vector 21 PolicyB.queue1 "time spent on the queue" ETV
attr interpolationmode none
vector 22 PolicyB.queue1 "queue size after modification" ETV
attr interpolationmode none
vector 23 PolicyB.queue7 "time spent on the queue" ETV
attr interpolationmode none
vector 24 PolicyB.queue7 "queue size after modification" ETV
attr interpolationmode none
vector 25 PolicyB.queue7 "processing time with client order" ETV
attr interpolationmode none
vector 26 PolicyB.queue0 "processing time with client order" ETV
attr interpolationmode none
vector 27 PolicyB.queue2 "processing time with client order" ETV
attr interpolationmode none
vector 28 PolicyB.queue3 "processing time with client order" ETV
attr interpolationmode none
vector 29 PolicyB.queue1 "processing time with client order" ETV
attr interpolationmode none
0	2	0	0
0	44	104.284	0
0	73	202.564	0
0	97	275.793	0
0	235	802.37	0
0	272	937.533	0
0	392	1486.803	0
0	669	2385.231	0
0	689	2486.355	0
0	722	2579.185	0
0	821	2943.933	0
0	844	3162.537	0
0	1000	3701.233	0
0	1138	4235.035	0
0	1208	4502.609	0
0	1330	5032.343	0
0	1416	5328.193	0
0	1477	5596.553	243.36
0	1557	6031.679	0
0	1614	6207.577	0
0	1708	6693.397	0
0	1792	7020.538	0
0	1874	7322.367	0
0	1904	7421.84	0
0	1958	7586.063	0
0	2013	7721.809	0
0	2083	7943.931	0
0	2146	8095.973	114.915
0	2192	8232.461	0
0	2295	8584.397	0
0	2399	9065.948	0
0	2417	9116.926	0
0	2441	9217.162	0
0	2484	9325.941	0
0	2530	9483.227	0
0	2948	10620.23	820.462
0	2965	10678.402	0
0	3163	11645.935	174.966
0	3232	11898.45	0
0	3304	12149.278	0
0	3327	12207.09	0
0	3354	12287.622	60.406
0	3491	12602.3	209.387
0	3566	12843.565	32.962
0	3639	13095.759	0
0	3762	13550.544	0
0	4195	15069.287	1119.963
0	4376	15706.594	0
0	4478	16095.122	0
0	4507	16174.616	64.15
0	4647	16619.992	0
0	4801	17168.476	337.039
0	4974	17761.821	0
0	5153	18367.011	0
0	5233	18641.741	0
0	5301	19010.878	0
0	5329	19128.692	0
0	5351	19169.011	0
0	5416	19371.918	84.308
0	5523	19803.295	0
0	5557	19878.945	0
0	5687	20296.493	0
0	5761	20615.74	0
0	5819	20787.122	0
0	5870	20948.919	0
0	6120	21716.533	0
0	6162	21853.583	0
0	6298	22435.891	0
0	6348	22532.592	0
0	6421	23003.78	0
0	6471	23283.413	0
0	6768	24194.386	0
0	6853	24533.934	0
0	6962	25028.565	0
0	7044	25408.832	0
0	7259	26395.295	0
0	7503	27273.702	0
0	7567	27593.303	0
0	7605	27757.012	0
0	7730	28127.017	323.307
0	7865	28629.266	0
0	7889	28816.126	0
0	7938	29131.626	0
0	8016	29470.351	0
0	8132	29933.777	0
0	8230	30281.918	287.474
0	8276	30443.875	0
0	8373	30783.406	0
0	8494	31142.186	0
0	8529	31207.019	0
0	8774	31986.887	0
0	8858	32511.541	0
0	8926	32814.244	0
0	9031	33123.76	0
0	9129	33457.331	152.493
0	9192	33664.022	0
0	9369	34352.178	422.863
0	9518	34884.694	0
0	9594	35058.897	99.807
0	9616	35119.937	0
0	9630	35155.972	17.451
0	9656	35205.672	14.275
0	9678	35267.838	5.192
0	9856	35881.194	0
0	9984	36365.147	0
0	10011	36473.757	0
0	10105	36768.137	0
0	10144	36960.161	0
0	10334	37671.275	0
0	10469	38209.338	0
0	10523	38332.692	0
0	10644	38821.849	0
0	10804	39547.999	0
0	11048	40350.916	325.699
0	11231	40827.386	372.355
0	11289	40970.812	0
0	11330	41070.261	0
0	11470	41513.349	0
0	11492	41558.397	44.609
0	11585	41884.585	0
0	11615	41963.124	0
0	11811	42607.277	0
0	11828	42656.259	0
0	11861	42732.35	0
0	11877	42803.596	60.914
1	2	0	0
1	44	104.284	0
1	73	202.564	0
1	97	275.793	0
1	235	802.37	0
1	272	937.533	0
1	392	1486.803	0
1	669	2385.231	0
1	689	2486.355	0
1	722	2579.185	0
1	821	2943.933	0
1	844	3162.537	0
1	1000	3701.233	0
1	1138	4235.035	0
1	1208	4502.609	0
1	1330	5032.343	0
1	1416	5328.193	0
1	1425	5353.193	1
1	1477	5596.553	0
1	1557	6031.679	0
1	1614	6207.577	0
1	1708	6693.397	0
1	1792	7020.538	0
1	1874	7322.367	0
1	1904	7421.84	0
1	1958	7586.063	0
1	2013	7721.809	0
1	2083	7943.931	0
1	2102	7981.058	1
1	2146	8095.973	0
1	2192	8232.461	0
1	2295	8584.397	0
1	2399	9065.948	0
1	2417	9116.926	0
1	2441	9217.162	0
1	2484	9325.941	0
1	2530	9483.227	0
1	2630	9799.768	1
1	2948	10620.23	0
1	2965	10678.402	0
1	3129	11470.969	1
1	3163	11645.935	0
1	3232	11898.45	0
1	3304	12149.278	0
1	3327	12207.09	0
1	3333	12227.216	1
1	3354	12287.622	0
1	3415	12392.913	1
1	3491	12602.3	0
1	3550	12810.603	1
1	3566	12843.565	0
1	3639	13095.759	0
1	3762	13550.544	0
1	3878	13949.324	1
1	4195	15069.287	0
1	4376	15706.594	0
1	4478	16095.122	0
1	4485	16110.466	1
1	4507	16174.616	0
1	4647	16619.992	0
1	4693	16831.437	1
1	4801	17168.476	0
1	4974	17761.821	0
1	5153	18367.011	0
1	5233	18641.741	0
1	5301	19010.878	0
1	5329	19128.692	0
1	5351	19169.011	0
1	5389	19287.61	1
1	5416	19371.918	0
1	5523	19803.295	0
1	5557	19878.945	0
1	5687	20296.493	0
1	5761	20615.74	0
1	5819	20787.122	0
1	5870	20948.919	0
1	6120	21716.533	0
1	6162	21853.583	0
1	6298	22435.891	0
1	6348	22532.592	0
1	6421	23003.78	0
1	6471	23283.413	0
1	6768	24194.386	0
1	6853	24533.934	0
1	6962	25028.565	0
1	7044	25408.832	0
1	7259	26395.295	0
1	7503	27273.702	0
1	7567	27593.303	0
1	7605	27757.012	0
1	7631	27803.71	1
1	7730	28127.017	0
1	7865	28629.266	0
1	7889	28816.126	0
1	7938	29131.626	0
1	8016	29470.351	0
1	8132	29933.777	0
1	8155	29994.444	1
1	8230	30281.918	0
1	8276	30443.875	0
1	8373	30783.406	0
1	8494	31142.186	0
1	8529	31207.019	0
1	8774	31986.887	0
1	8858	32511.541	0
1	8926	32814.244	0
1	9031	33123.76	0
1	9082	33304.838	1
1	9129	33457.331	0
1	9192	33664.022	0
1	9252	33929.315	1
1	9369	34352.178	0
1	9518	34884.694	0
1	9546	34959.09	1
1	9594	35058.897	0
1	9616	35119.937	0
1	9623	35138.521	1
1	9630	35155.972	0
1	9649	35191.397	1
1	9656	35205.672	0
1	9676	35262.646	1
1	9678	35267.838	0
1	9856	35881.194	0
1	9984	36365.147	0
1	10011	36473.757	0
1	10105	36768.137	0
1	10144	36960.161	0
1	10334	37671.275	0
1	10469	38209.338	0
1	10523	38332.692	0
1	10644	38821.849	0
1	10804	39547.999	0
1	10958	40025.217	1
1	11048	40350.916	0
1	11094	40455.031	1
1	11231	40827.386	0
1	11289	40970.812	0
1	11330	41070.261	0
1	11470	41513.349	0
1	11473	41513.788	1
1	11492	41558.397	0
1	11585	41884.585	0
1	11615	41963.124	0
1	11811	42607.277	0
1	11828	42656.259	0
1	11861	42732.35	0
1	11864	42742.682	1
1	11877	42803.596	0
2	5	4.272	0
2	34	87.437	0
2	84	230.494	0
2	143	448.473	0
2	209	686.871	0
2	231	784.51	0
2	305	1012.509	0
2	398	1492.125	0
2	472	1772.118	0
2	710	2543.659	0
2	815	2927.885	0
2	1053	3899.619	0
2	1089	4011.346	0
2	1131	4189.778	0
2	1251	4650.292	0
2	1323	5028.101	0
2	1462	5512.681	0
2	1548	6001.996	0
2	1699	6644.773	0
2	1815	7113.135	0
2	1901	7396.385	0
2	2035	7778.16	162.326
2	2122	8026.92	0
2	2313	8710.946	0
2	2377	8979.545	0
2	2521	9452.454	209.055
2	2600	9737.575	0
2	2624	9789.619	0
2	2688	9981.452	0
2	2869	10415.972	238.073
2	3031	10994.23	0
2	3063	11119.002	0
2	3084	11272.202	0
2	3126	11462.668	0
2	3278	12055.68	0
2	3314	12167.56	0
2	3410	12386.042	0
2	3482	12585.72	187.67
2	3538	12792.613	0
2	3601	13012.775	201.411
2	3632	13082.321	0
2	3748	13517.283	0
2	3958	14359.434	326.902
2	4050	14709.475	0
2	4213	15103.444	0
2	4265	15353.474	0
2	4352	15624.582	26.474
2	4547	16296.306	0
2	4721	16915.027	519.444
2	4777	17082.055	0
2	4882	17443.472	0
2	4983	17802.696	0
2	5021	17979.281	0
2	5052	18056.543	0
2	5097	18148.008	0
2	5147	18350.974	0
2	5190	18534.383	0
2	5293	18972.759	0
2	5366	19213.106	0
2	5646	20190.483	0
2	5663	20223.004	0
2	5767	20643.45	0
2	5874	20964.379	0
2	5911	21139.596	0
2	6024	21483.83	54.176
2	6247	22241.61	383.263
2	6278	22351.46	0
2	6366	22683.269	0
2	6401	22919.108	0
2	6499	23345.381	0
2	6538	23561.477	0
2	6661	23914.272	0
2	6718	24049.967	0
2	6752	24162.631	0
2	6788	24283.688	0
2	6868	24619.449	0
2	7030	25336.726	0
2	7092	25540.21	0
2	7197	26036.783	0
2	7262	26399.029	0
2	7299	26512.255	0
2	7364	26776.971	170.762
2	7399	26912.61	25.529
2	7510	27280.015	0
2	7677	27939.551	0
2	7818	28378.476	0
2	7911	28984.522	0
2	8005	29449.772	0
2	8049	29580.408	0
2	8075	29652.491	0
2	8172	30053.628	0
2	8377	30787.954	0
2	8526	31204.61	0
2	8563	31318.147	0
2	8605	31459.361	86.477
2	8720	31830.566	0
2	8838	32425.238	0
2	8931	32847.372	0
2	8968	32941.981	0
2	9051	33163.763	0
2	9094	33339.148	0
2	9234	33904.511	0
2	9351	34266.334	0
2	9396	34397.027	0
2	9468	34698.708	0
2	9500	34786.671	0
2	9761	35476.845	443.001
2	9795	35620.718	131.86
2	9889	35961.369	0
2	9981	36358.683	0
2	10054	36599.57	0
2	10434	37998.121	0
2	10511	38326.526	0
2	10624	38724.051	0
2	10653	38840.07	0
2	10847	39699.246	585.315
2	10942	40001.413	0
2	11203	40782.429	0
2	11420	41370.543	213.911
2	11519	41675.399	0
2	11619	41964.863	0
2	11801	42589.855	303.141
2	11921	42929.282	251.927
2	11979	43113.488	0
3	5	4.272	0
3	34	87.437	0
3	84	230.494	0
3	143	448.473	0
3	209	686.871	0
3	231	784.51	0
3	305	1012.509	0
3	398	1492.125	0
3	472	1772.118	0
3	710	2543.659	0
3	815	2927.885	0
3	1053	3899.619	0
3	1089	4011.346	0
3	1131	4189.778	0
3	1251	4650.292	0
3	1323	5028.101	0
3	1462	5512.681	0
3	1548	6001.996	0
3	1699	6644.773	0
3	1815	7113.135	0
3	1901	7396.385	0
3	1965	7615.834	1
3	2035	7778.16	0
3	2122	8026.92	0
3	2313	8710.946	0
3	2377	8979.545	0
3	2453	9243.399	1
3	2521	9452.454	0
3	2600	9737.575	0
3	2624	9789.619	0
3	2688	9981.452	0
3	2760	10177.899	1
3	2869	10415.972	0
3	3031	10994.23	0
3	3063	11119.002	0
3	3084	11272.202	0
3	3126	11462.668	0
3	3278	12055.68	0
3	3314	12167.56	0
3	3410	12386.042	0
3	3418	12398.05	1
3	3482	12585.72	0
3	3538	12792.613	0
3	3552	12811.364	1
3	3601	13012.775	0
3	3632	13082.321	0
3	3748	13517.283	0
3	3895	14032.532	1
3	3958	14359.434	0
3	4050	14709.475	0
3	4213	15103.444	0
3	4265	15353.474	0
3	4333	15598.108	1
3	4352	15624.582	0
3	4547	16296.306	0
3	4575	16395.583	1
3	4721	16915.027	0
3	4777	17082.055	0
3	4882	17443.472	0
3	4983	17802.696	0
3	5021	17979.281	0
3	5052	18056.543	0
3	5097	18148.008	0
3	5147	18350.974	0
3	5190	18534.383	0
3	5293	18972.759	0
3	5366	19213.106	0
3	5646	20190.483	0
3	5663	20223.004	0
3	5767	20643.45	0
3	5874	20964.379	0
3	5911	21139.596	0
3	6004	21429.654	1
3	6024	21483.83	0
3	6165	21858.347	1
3	6247	22241.61	0
3	6278	22351.46	0
3	6366	22683.269	0
3	6401	22919.108	0
3	6499	23345.381	0
3	6538	23561.477	0
3	6661	23914.272	0
3	6718	24049.967	0
3	6752	24162.631	0
3	6788	24283.688	0
3	6868	24619.449	0
3	7030	25336.726	0
3	7092	25540.21	0
3	7197	26036.783	0
3	7262	26399.029	0
3	7299	26512.255	0
3	7328	26606.209	1
3	7364	26776.971	0
3	7393	26887.081	1
3	7399	26912.61	0
3	7510	27280.015	0
3	7677	27939.551	0
3	7818	28378.476	0
3	7911	28984.522	0
3	8005	29449.772	0
3	8049	29580.408	0
3	8075	29652.491	0
3	8172	30053.628	0
3	8377	30787.954	0
3	8526	31204.61	0
3	8563	31318.147	0
3	8577	31372.884	1
3	8605	31459.361	0
3	8720	31830.566	0
3	8838	32425.238	0
3	8931	32847.372	0
3	8968	32941.981	0
3	9051	33163.763	0
3	9094	33339.148	0
3	9234	33904.511	0
3	9351	34266.334	0
3	9396	34397.027	0
3	9468	34698.708	0
3	9500	34786.671	0
3	9578	35033.844	1
3	9761	35476.845	0
3	9765	35488.858	1
3	9795	35620.718	0
3	9889	35961.369	0
3	9981	36358.683	0
3	10054	36599.57	0
3	10434	37998.121	0
3	10511	38326.526	0
3	10624	38724.051	0
3	10653	38840.07	0
3	10708	39113.931	1
3	10847	39699.246	0
3	10942	40001.413	0
3	11203	40782.429	0
3	11346	41156.632	1
3	11420	41370.543	0
3	11519	41675.399	0
3	11619	41964.863	0
3	11735	42286.714	1
3	11801	42589.855	0
3	11836	42677.355	1
3	11921	42929.282	0
3	11979	43113.488	0
4	8	13.249	0
4	37	89.751	0
4	175	595.55	0
4	312	1039.607	0
4	401	1497.387	0
4	417	1549.904	0
4	539	1988.174	0
4	617	2200.034	0
4	698	2514.024	0
4	737	2635.292	0
4	777	2779.246	0
4	883	3376.875	0
4	1018	3751.103	186.558
4	1098	4068.594	0
4	1141	4262.2	0
4	1202	4482.15	0
4	1237	4591.556	0
4	1319	5018.202	0
4	1492	5754.69	0
4	1554	6028.011	0
4	1586	6112.418	0
4	1730	6762.005	0
4	1750	6831.475	0
4	1771	6915.255	0
4	1840	7202.173	73.262
4	1961	7587.404	0
4	2202	8236.5	0
4	2330	8763.564	0
4	2391	9028.451	0
4	2641	9831.546	0
4	2762	10180.303	4.752
4	2794	10247.934	42.894
4	2819	10283.688	0
4	2886	10434.829	0
4	2931	10583.182	0
4	3021	10926.594	0
4	3094	11320.223	0
4	3178	11703.495	0
4	3203	11821.843	0
4	3220	11865.023	0
4	3294	12116.517	0
4	3379	12328.701	0
4	3425	12426.301	0
4	3488	12602.058	0
4	3578	12886.685	0
4	3636	13089.374	0
4	3693	13238.392	0
4	3900	14035.958	0
4	3938	14214.555	0
4	4006	14485.093	0
4	4121	14946.044	0
4	4139	14976.59	26.351
4	4327	15590.771	594.886
4	4459	16059.844	0
4	4551	16327.426	0
4	4612	16516.367	0
4	4686	16812.192	259.661
4	4753	17003.823	180.713
4	4967	17756.57	0
4	5037	18032.658	0
4	5135	18322.583	0
4	5183	18509.423	0
4	5258	18744.417	0
4	5383	19269.996	104.2
4	5497	19684.71	406.816
4	5569	19932.184	0
4	5797	20740.015	663.349
4	5905	21125.678	0
4	6057	21558.274	0
4	6147	21786.571	0
4	6267	22315.362	0
4	6324	22489.421	0
4	6503	23369.879	0
4	6695	23985.77	0
4	6743	24160.57	0
4	6883	24680.42	0
4	6968	25040.064	0
4	7165	25881.324	0
4	7220	26180.043	0
4	7358	26747.153	115.714
4	7409	26937.133	60.212
4	7608	27768.32	0
4	7720	28092.332	0
4	7837	28477.572	0
4	7950	29178.856	0
4	7988	29386.98	0
4	8102	29784.712	173.684
4	8226	30248.2	0
4	8354	30755.616	0
4	8470	31087.903	19.839
4	8545	31273.04	0
4	8802	32133.643	0
4	8989	33013.402	46.795
4	9418	34446.775	530.207
4	9449	34559.032	0
4	9687	35281.656	95.989
4	9731	35393.67	0
4	10017	36496.032	0
4	10068	36628.852	0
4	10108	36770.181	0
4	10239	37348.082	0
4	10340	37676.431	0
4	10381	37842.552	0
4	10458	38174.455	0
4	10612	38663.642	0
4	10647	38823.391	0
4	10702	39103.391	0
4	10786	39479.841	0
4	10833	39653.186	0
4	10875	39779.316	0
4	10900	39893.025	0
4	11045	40347.126	0
4	11078	40437.667	0
4	11114	40506.088	0
4	11128	40543.62	0
4	11159	40665.819	0
4	11216	40803.155	60.92
4	11285	40959.163	0
4	11461	41476.364	85.536
4	11516	41658.495	0
4	11597	41934.265	0
4	11676	42086.87	0
4	11805	42596.816	0
4	11989	43195.112	0
5	8	13.249	0
5	37	89.751	0
5	175	595.55	0
5	312	1039.607	0
5	401	1497.387	0
5	417	1549.904	0
5	539	1988.174	0
5	617	2200.034	0
5	698	2514.024	0
5	737	2635.292	0
5	777	2779.246	0
5	883	3376.875	0
5	945	3564.545	1
5	1018	3751.103	0
5	1098	4068.594	0
5	1141	4262.2	0
5	1202	4482.15	0
5	1237	4591.556	0
5	1319	5018.202	0
5	1492	5754.69	0
5	1554	6028.011	0
5	1586	6112.418	0
5	1730	6762.005	0
5	1750	6831.475	0
5	1771	6915.255	0
5	1821	7128.911	1
5	1840	7202.173	0
5	1961	7587.404	0
5	2202	8236.5	0
5	2330	8763.564	0
5	2391	9028.451	0
5	2641	9831.546	0
5	2758	10175.551	1
5	2762	10180.303	0
5	2777	10205.04	1
5	2794	10247.934	0
5	2819	10283.688	0
5	2886	10434.829	0
5	2931	10583.182	0
5	3021	10926.594	0
5	3094	11320.223	0
5	3178	11703.495	0
5	3203	11821.843	0
5	3220	11865.023	0
5	3294	12116.517	0
5	3379	12328.701	0
5	3425	12426.301	0
5	3488	12602.058	0
5	3578	12886.685	0
5	3636	13089.374	0
5	3693	13238.392	0
5	3900	14035.958	0
5	3938	14214.555	0
5	4006	14485.093	0
5	4121	14946.044	0
5	4127	14950.239	1
5	4139	14976.59	0
5	4150	14995.885	1
5	4327	15590.771	0
5	4459	16059.844	0
5	4551	16327.426	0
5	4612	16516.367	0
5	4621	16552.531	1
5	4686	16812.192	0
5	4690	16823.11	1
5	4753	17003.823	0
5	4967	17756.57	0
5	5037	18032.658	0
5	5135	18322.583	0
5	5183	18509.423	0
5	5258	18744.417	0
5	5346	19165.796	1
5	5383	19269.996	0
5	5387	19277.894	1
5	5497	19684.71	0
5	5569	19932.184	0
5	5619	20076.666	1
5	5797	20740.015	0
5	5905	21125.678	0
5	6057	21558.274	0
5	6147	21786.571	0
5	6267	22315.362	0
5	6324	22489.421	0
5	6503	23369.879	0
5	6695	23985.77	0
5	6743	24160.57	0
5	6883	24680.42	0
5	6968	25040.064	0
5	7165	25881.324	0
5	7220	26180.043	0
5	7331	26631.439	1
5	7358	26747.153	0
5	7390	26876.921	1
5	7409	26937.133	0
5	7608	27768.32	0
5	7720	28092.332	0
5	7837	28477.572	0
5	7950	29178.856	0
5	7988	29386.98	0
5	8062	29611.028	1
5	8102	29784.712	0
5	8226	30248.2	0
5	8354	30755.616	0
5	8465	31068.064	1
5	8470	31087.903	0
5	8545	31273.04	0
5	8802	32133.643	0
5	8979	32966.607	1
5	8989	33013.402	0
5	9243	33916.568	1
5	9418	34446.775	0
5	9449	34559.032	0
5	9646	35185.667	1
5	9687	35281.656	0
5	9731	35393.67	0
5	10017	36496.032	0
5	10068	36628.852	0
5	10108	36770.181	0
5	10239	37348.082	0
5	10340	37676.431	0
5	10381	37842.552	0
5	10458	38174.455	0
5	10612	38663.642	0
5	10647	38823.391	0
5	10702	39103.391	0
5	10786	39479.841	0
5	10833	39653.186	0
5	10875	39779.316	0
5	10900	39893.025	0
5	11045	40347.126	0
5	11078	40437.667	0
5	11114	40506.088	0
5	11128	40543.62	0
5	11159	40665.819	0
5	11190	40742.235	1
5	11216	40803.155	0
5	11285	40959.163	0
5	11432	41390.828	1
5	11461	41476.364	0
5	11516	41658.495	0
5	11597	41934.265	0
5	11676	42086.87	0
5	11805	42596.816	0
5	11989	43195.112	0
6	11	16.354	0
6	70	191.851	0
6	155	548.346	0
6	186	631.943	0
6	228	778.89	0
6	250	857.271	27.957
6	289	982.582	0
6	331	1099.071	0
6	434	1638.166	0
6	475	1774.983	0
6	521	1927.786	0
6	557	2030.474	0
6	590	2123.589	0
6	676	2437.416	0
6	726	2604.397	0
6	746	2661.539	0
6	794	2822.635	0
6	833	3110.939	0
6	876	3324.24	0
6	889	3389.844	0
6	926	3482.749	0
6	965	3633.473	0
6	1012	3733.785	0
6	1030	3796.324	0
6	1050	3892.212	0
6	1104	4084.38	0
6	1160	4340.495	0
6	1205	4485.197	0
6	1336	5043.658	0
6	1363	5148.105	0
6	1395	5312.93	0
6	1466	5527.409	0
6	1551	6013.499	0
6	1574	6056.809	0
6	1619	6230.926	0
6	1656	6500.18	0
6	1687	6619.076	0
6	1747	6818.972	0
6	1774	6918.216	0
6	1808	7095.004	0
6	1830	7181.148	0
6	1860	7235.133	0
6	1898	7393.302	0
6	1927	7483.259	0
6	1977	7653.147	0
6	2017	7723.311	0
6	2047	7806.369	0
6	2073	7916.957	0
6	2094	7957.233	0
6	2159	8140.254	0
6	2230	8373.508	0
6	2252	8459.837	0
6	2320	8746.899	0
6	2394	9037.022	0
6	2444	9220.452	0
6	2462	9260.842	0
6	2497	9366.691	0
6	2547	9539.291	0
6	2565	9597.691	0
6	2614	9773.944	0
6	2664	9886.33	0
6	2704	10001.782	0
6	2735	10122.737	0
6	2787	10245.965	109.416
6	2826	10293.791	0
6	2896	10461.101	0
6	2937	10587.25	0
6	2988	10795.059	0
6	3028	10982.934	0
6	3074	11208.33	0
6	3106	11380.163	0
6	3123	11455.509	0
6	3185	11764.114	0
6	3248	11917.914	0
6	3297	12127.276	0
6	3358	12296.133	0
6	3401	12364.014	0
6	3447	12481.739	0
6	3470	12570.379	0
6	3535	12782.827	0
6	3616	13055.527	0
6	3683	13188.376	0
6	3745	13496.349	0
6	3782	13613.822	0
6	3809	13689.595	0
6	3855	13883.445	0
6	3941	14220.593	0
6	3965	14378.385	0
6	3973	14412.671	0
6	4038	14658.393	0
6	4060	14751.161	0
6	4124	14947.446	0
6	4176	15032.071	0
6	4219	15119.282	0
6	4252	15317.69	0
6	4282	15433.662	0
6	4312	15543.636	0
6	4367	15672.264	0
6	4396	15752.897	0
6	4463	16060.795	0
6	4491	16126.26	0
6	4514	16197.566	66.618
6	4554	16331.456	0
6	4595	16484.848	0
6	4650	16621.674	0
6	4675	16777.353	0
6	4747	16997.775	0
6	4817	17250.287	0
6	4856	17380.059	0
6	4885	17459.197	50.815
6	4910	17535.082	0
6	4925	17598.812	0
6	4963	17749.662	0
6	4995	17828.552	0
6	5017	17947.439	0
6	5061	18066.184	0
6	5115	18223.88	0
6	5138	18325.503	0
6	5194	18537.546	0
6	5220	18616.036	0
6	5296	18986.921	0
6	5343	19160.74	0
6	5425	19423.561	0
6	5451	19502.564	0
6	5512	19760.532	0
6	5550	19860.749	0
6	5579	19973.136	0
6	5595	20036.197	0
6	5627	20106.231	23.512
6	5656	20206.913	0
6	5725	20424.299	0
6	5753	20553.65	0
6	5783	20694.038	0
6	5807	20753.256	0
6	5836	20840.21	0
6	5867	20930.348	0
6	5899	21121.047	0
6	5943	21249.273	0
6	5974	21336.956	0
6	6017	21455.968	0
6	6063	21570.416	0
6	6097	21631.802	0
6	6159	21846.41	0
6	6194	22002.792	0
6	6226	22088.745	20.043
6	6257	22259.967	0
6	6301	22436.284	0
6	6345	22530.437	0
6	6387	22798.599	0
6	6404	22931.017	0
6	6454	23210.45	0
6	6496	23340.557	0
6	6531	23486.415	0
6	6547	23574.376	0
6	6598	23677.414	0
6	6643	23855.277	0
6	6680	23954.853	0
6	6715	24049.654	0
6	6762	24190.454	0
6	6825	24449.435	0
6	6905	24758.926	0
6	6938	24929.228	0
6	6949	24992.141	0
6	6974	25052.667	0
6	6998	25193.161	0
6	7037	25367.839	0
6	7064	25470.487	0
6	7112	25594.499	0
6	7154	25821.525	0
6	7241	26283.932	0
6	7285	26476.547	0
6	7345	26704.209	0
6	7373	26839.934	0
6	7406	26933.632	0
6	7453	27098.407	0
6	7473	27188.539	0
6	7496	27266.403	50.937
6	7526	27339.031	0
6	7539	27515.752	0
6	7589	27687.279	0
6	7615	27772.914	0
6	7652	27860.814	46.872
6	7696	28028.999	0
6	7737	28153.292	0
6	7766	28248.56	0
6	7784	28280.647	0
6	7811	28347.784	0
6	7854	28538.313	0
6	7875	28691.935	0
6	7925	29046.868	0
6	7944	29146.379	0
6	7978	29347.353	0
6	8035	29540.454	0
6	8058	29608.278	0
6	8119	29884.19	0
6	8190	30125.421	0
6	8234	30288.73	0
6	8265	30384.267	0
6	8303	30561.507	0
6	8331	30676.577	0
6	8406	30861.071	0
6	8430	30928.599	0
6	8474	31098.261	0
6	8510	31182.938	0
6	8566	31331.909	0
6	8632	31570.671	0
6	8660	31660.534	0
6	8697	31768.484	95.641
6	8753	31910.657	0
6	8771	31971.622	0
6	8799	32121.931	0
6	8887	32675.816	0
6	8934	32869.944	0
6	8993	33029.352	0
6	9023	33105.934	0
6	9065	33242.729	117.39
6	9117	33412.71	148.931
6	9148	33489.746	0
6	9177	33581.322	0
6	9189	33651.686	0
6	9207	33758.611	0
6	9231	33891.616	0
6	9249	33925.786	0
6	9323	34175.858	0
6	9348	34263.893	0
6	9390	34394.04	0
6	9422	34458.225	0
6	9460	34642.471	0
6	9508	34849.822	0
6	9543	34944.9	0
6	9568	34999.355	0
6	9613	35119.152	0
6	9642	35184.472	4.033
6	9699	35303.23	45.495
6	9722	35386.388	0
6	9785	35544.669	0
6	9816	35746.927	0
6	9842	35851.863	0
6	9875	35929.942	72.801
6	10027	36510.367	0
6	10117	36803.644	0
6	10161	37015.291	0
6	10170	37087.982	0
6	10235	37347.439	208.222
6	10278	37559.596	0
6	10294	37600.118	0
6	10345	37698.231	0
6	10378	37838.433	0
6	10472	38213.22	0
6	10527	38347.882	0
6	10591	38609.457	0
6	10670	38933.597	0
6	10698	39053.351	0
6	10729	39179.269	0
6	10765	39411.723	0
6	10783	39455.796	0
6	10825	39632.056	0
6	10862	39752.539	0
6	10893	39860.867	0
6	10930	39960.266	0
6	10986	40122.832	0
6	11021	40282.751	0
6	11055	40363.271	0
6	11111	40498.142	0
6	11141	40601.722	0
6	11165	40679.407	0
6	11199	40761.64	0
6	11242	40862.214	0
6	11282	40955.712	0
6	11338	41099.121	0
6	11363	41193.248	0
6	11408	41353.225	0
6	11465	41490.822	0
6	11567	41838.595	0
6	11643	42020.674	0
6	11694	42160.374	0
6	11714	42214.109	0
6	11754	42359.381	23.772
6	11790	42540.825	0
6	11831	42660.583	0
6	11881	42805.368	0
6	11915	42920.494	0
6	11945	43009.69	0
6	11984	43140.908	0
7	11	16.354	0
7	70	191.851	0
7	155	548.346	0
7	186	631.943	0
7	228	778.89	0
7	243	829.314	1
7	250	857.271	0
7	289	982.582	0
7	331	1099.071	0
7	434	1638.166	0
7	475	1774.983	0
7	521	1927.786	0
7	557	2030.474	0
7	590	2123.589	0
7	676	2437.416	0
7	726	2604.397	0
7	746	2661.539	0
7	794	2822.635	0
7	833	3110.939	0
7	876	3324.24	0
7	889	3389.844	0
7	926	3482.749	0
7	965	3633.473	0
7	1012	3733.785	0
7	1030	3796.324	0
7	1050	3892.212	0
7	1104	4084.38	0
7	1160	4340.495	0
7	1205	4485.197	0
7	1336	5043.658	0
7	1363	5148.105	0
7	1395	5312.93	0
7	1466	5527.409	0
7	1551	6013.499	0
7	1574	6056.809	0
7	1619	6230.926	0
7	1656	6500.18	0
7	1687	6619.076	0
7	1747	6818.972	0
7	1774	6918.216	0
7	1808	7095.004	0
7	1830	7181.148	0
7	1860	7235.133	0
7	1898	7393.302	0
7	1927	7483.259	0
7	1977	7653.147	0
7	2017	7723.311	0
7	2047	7806.369	0
7	2073	7916.957	0
7	2094	7957.233	0
7	2159	8140.254	0
7	2230	8373.508	0
7	2252	8459.837	0
7	2320	8746.899	0
7	2394	9037.022	0
7	2444	9220.452	0
7	2462	9260.842	0
7	2497	9366.691	0
7	2547	9539.291	0
7	2565	9597.691	0
7	2614	9773.944	0
7	2664	9886.33	0
7	2704	10001.782	0
7	2735	10122.737	0
7	2738	10136.549	1
7	2787	10245.965	0
7	2826	10293.791	0
7	2896	10461.101	0
7	2937	10587.25	0
7	2988	10795.059	0
7	3028	10982.934	0
7	3074	11208.33	0
7	3106	11380.163	0
7	3123	11455.509	0
7	3185	11764.114	0
7	3248	11917.914	0
7	3297	12127.276	0
7	3358	12296.133	0
7	3401	12364.014	0
7	3447	12481.739	0
7	3470	12570.379	0
7	3535	12782.827	0
7	3616	13055.527	0
7	3683	13188.376	0
7	3745	13496.349	0
7	3782	13613.822	0
7	3809	13689.595	0
7	3855	13883.445	0
7	3941	14220.593	0
7	3965	14378.385	0
7	3973	14412.671	0
7	4038	14658.393	0
7	4060	14751.161	0
7	4124	14947.446	0
7	4176	15032.071	0
7	4219	15119.282	0
7	4252	15317.69	0
7	4282	15433.662	0
7	4312	15543.636	0
7	4367	15672.264	0
7	4396	15752.897	0
7	4463	16060.795	0
7	4491	16126.26	0
7	4495	16130.948	1
7	4514	16197.566	0
7	4554	16331.456	0
7	4595	16484.848	0
7	4650	16621.674	0
7	4675	16777.353	0
7	4747	16997.775	0
7	4817	17250.287	0
7	4856	17380.059	0
7	4871	17408.382	1
7	4885	17459.197	0
7	4910	17535.082	0
7	4925	17598.812	0
7	4963	17749.662	0
7	4995	17828.552	0
7	5017	17947.439	0
7	5061	18066.184	0
7	5115	18223.88	0
7	5138	18325.503	0
7	5194	18537.546	0
7	5220	18616.036	0
7	5296	18986.921	0
7	5343	19160.74	0
7	5425	19423.561	0
7	5451	19502.564	0
7	5512	19760.532	0
7	5550	19860.749	0
7	5579	19973.136	0
7	5595	20036.197	0
7	5622	20082.719	1
7	5627	20106.231	0
7	5656	20206.913	0
7	5725	20424.299	0
7	5753	20553.65	0
7	5783	20694.038	0
7	5807	20753.256	0
7	5836	20840.21	0
7	5867	20930.348	0
7	5899	21121.047	0
7	5943	21249.273	0
7	5974	21336.956	0
7	6017	21455.968	0
7	6063	21570.416	0
7	6097	21631.802	0
7	6159	21846.41	0
7	6194	22002.792	0
7	6216	22068.702	1
7	6226	22088.745	0
7	6257	22259.967	0
7	6301	22436.284	0
7	6345	22530.437	0
7	6387	22798.599	0
7	6404	22931.017	0
7	6454	23210.45	0
7	6496	23340.557	0
7	6531	23486.415	0
7	6547	23574.376	0
7	6598	23677.414	0
7	6643	23855.277	0
7	6680	23954.853	0
7	6715	24049.654	0
7	6762	24190.454	0
7	6825	24449.435	0
7	6905	24758.926	0
7	6938	24929.228	0
7	6949	24992.141	0
7	6974	25052.667	0
7	6998	25193.161	0
7	7037	25367.839	0
7	7064	25470.487	0
7	7112	25594.499	0
7	7154	25821.525	0
7	7241	26283.932	0
7	7285	26476.547	0
7	7345	26704.209	0
7	7373	26839.934	0
7	7406	26933.632	0
7	7453	27098.407	0
7	7473	27188.539	0
7	7483	27215.466	1
7	7496	27266.403	0
7	7526	27339.031	0
7	7539	27515.752	0
7	7589	27687.279	0
7	7615	27772.914	0
7	7635	27813.942	1
7	7652	27860.814	0
7	7696	28028.999	0
7	7737	28153.292	0
7	7766	28248.56	0
7	7784	28280.647	0
7	7811	28347.784	0
7	7854	28538.313	0
7	7875	28691.935	0
7	7925	29046.868	0
7	7944	29146.379	0
7	7978	29347.353	0
7	8035	29540.454	0
7	8058	29608.278	0
7	8119	29884.19	0
7	8190	30125.421	0
7	8234	30288.73	0
7	8265	30384.267	0
7	8303	30561.507	0
7	8331	30676.577	0
7	8406	30861.071	0
7	8430	30928.599	0
7	8474	31098.261	0
7	8510	31182.938	0
7	8566	31331.909	0
7	8632	31570.671	0
7	8660	31660.534	0
7	8664	31672.843	1
7	8697	31768.484	0
7	8753	31910.657	0
7	8771	31971.622	0
7	8799	32121.931	0
7	8887	32675.816	0
7	8934	32869.944	0
7	8993	33029.352	0
7	9023	33105.934	0
7	9034	33125.339	1
7	9065	33242.729	0
7	9071	33263.779	1
7	9117	33412.71	0
7	9148	33489.746	0
7	9177	33581.322	0
7	9189	33651.686	0
7	9207	33758.611	0
7	9231	33891.616	0
7	9249	33925.786	0
7	9323	34175.858	0
7	9348	34263.893	0
7	9390	34394.04	0
7	9422	34458.225	0
7	9460	34642.471	0
7	9508	34849.822	0
7	9543	34944.9	0
7	9568	34999.355	0
7	9613	35119.152	0
7	9640	35180.439	1
7	9642	35184.472	0
7	9674	35257.735	1
7	9699	35303.23	0
7	9722	35386.388	0
7	9785	35544.669	0
7	9816	35746.927	0
7	9842	35851.863	0
7	9845	35857.141	1
7	9875	35929.942	0
7	10027	36510.367	0
7	10117	36803.644	0
7	10161	37015.291	0
7	10170	37087.982	0