version 2
run General-0-20220621-02:33:24-1076
attr configname General
attr datetime 20220621-02:33:24
attr experiment General
attr inifile omnetpp.ini
attr iterationvars $0=789
attr iterationvarsf 789-
attr measurement $0=789
attr network PolicyA
attr processid 1076
attr repetition 0
attr replication #0
attr resultdir results
attr runnumber 0
attr seedset 789

vector 0 PolicyA.queue "time spent on the queue" ETV
attr interpolationmode none
vector 1 PolicyA.queue "queue size after modification" ETV
attr interpolationmode none
vector 2 PolicyA.queue "queue size per minute" ETV
attr interpolationmode none
vector 3 PolicyA.queue "client processing order" ETV
attr interpolationmode none
vector 4 PolicyA.queue "processing time with client order" ETV
attr interpolationmode none
vector 5 PolicyA.queue "till processing order" ETV
attr interpolationmode none
vector 6 PolicyA.queue "client total time in the till" ETV
attr interpolationmode none
vector 7 PolicyA.source "number of clients entering the queue per timer interval" ETV
attr interpolationmode none
0	2	0	0
0	5	7.812	0
0	7	10.653	0
0	10	15.887	0
0	12	16.31	0
0	20	47.886	0
0	30	121.995	0
0	32	122.209	0
0	43	198.577	0
0	46	200.931	0
0	48	208.691	0
0	51	224.141	0
0	55	236.762	0
0	61	242.241	0
0	73	276.84	18.559
0	85	343.671	67.431
0	92	357.188	54.529
0	99	374.477	51.356
0	106	397.706	69.6
0	115	440.8	92.378
0	131	504.322	153.181
0	133	505.495	143.912
0	136	524.848	155.331
0	143	531.343	152.789
0	145	535.926	129.98
0	151	541.209	85.862
0	154	548.032	83.428
0	163	567.482	86.055
0	177	627.15	127.6
0	180	643.575	113.11
0	182	644.512	103.402
0	205	714.264	152.275
0	207	716.259	105.964
0	211	722.079	102.066
0	218	744.007	79.837
0	220	745.185	76.184
0	235	807.646	134.346
0	243	858.648	177.871
0	267	986.001	300.573
0	270	989.226	291.636
0	273	1003.933	277.025
0	275	1004.258	246.686
0	282	1026.923	240.791
0	284	1042.237	214.015
0	290	1071.781	207.632
0	298	1103.065	226.784
0	300	1103.683	206.534
0	305	1116.161	175.242
0	311	1136.232	169.272
0	323	1176.527	191.626
0	330	1249.333	165.317
0	332	1258.226	134.272
0	339	1264.838	108.438
0	341	1266.835	104.916
0	343	1268.524	92.083
0	352	1292.942	28.621
0	354	1298.762	9.193
0	368	1355.005	38.443
0	379	1421.638	72.236
0	386	1464.817	85.234
0	389	1496.164	107.712
0	394	1513.708	101.234
0	396	1514.382	58.351
0	408	1594.664	77.32
0	410	1596.945	21.912
0	423	1669.892	0
0	432	1706.425	0
0	434	1707.411	0
0	438	1736.057	0
0	444	1755.65	0
0	452	1798.826	0
0	464	1872.666	0
0	467	1899.651	0
0	469	1903.7	0
0	491	2045.232	0
0	494	2058.052	0
0	506	2127.741	0
0	509	2132.239	0
0	512	2155.004	0
0	518	2176.59	0
0	524	2203.601	0
0	530	2270.932	0
0	540	2350.562	0
0	548	2455.356	0
0	553	2493.707	0
0	559	2522.392	0
0	566	2556.479	0
0	575	2599.514	0
0	577	2608.015	0
0	581	2631.346	0
0	597	2731.644	0
0	608	2790.681	0
0	611	2818.509	0
0	616	2833.506	0
0	622	2868.485	0
0	627	2898.071	0
0	631	2937.71	0
0	637	2945.781	0
0	643	2971.626	0
0	646	2974.156	0
0	651	2997.37	0
0	660	3011.604	0
0	670	3066.564	0
0	681	3124.332	0
0	686	3158.015	0
0	694	3221.914	0
0	704	3338.773	0
0	711	3388.695	0
0	713	3391.564	0
0	716	3396.81	0
0	724	3479.235	0
0	730	3493.379	0
0	733	3505.537	0
0	743	3547.765	10.73
0	745	3551.098	9.806
0	751	3559.832	0
0	762	3603.602	0
0	773	3691.679	0
0	775	3696.285	0
0	781	3731.306	0
0	787	3750.506	7.436
0	792	3775.073	16.321
0	806	3808.227	0
0	816	3854.55	0
0	819	3863.115	0
0	829	3940.738	0
0	832	3954.147	0
0	837	3983.302	0
0	841	4016.254	0
0	846	4037.002	0
0	860	4108.969	0
0	869	4146.897	0
0	872	4152.502	0
0	879	4216.814	0
0	890	4316.842	0
0	892	4319.356	0
0	897	4342.19	0
0	903	4357.452	0
0	910	4380.096	0
0	919	4404.637	0
0	921	4407.042	0
0	930	4435.118	0
0	936	4461.581	0
0	942	4504.694	0
0	956	4558.982	0
0	961	4607.232	0
0	966	4652.048	0
0	969	4667.57	0
0	978	4694.198	0
0	981	4703.726	0
0	987	4716.039	0
0	996	4776.201	0
0	999	4796.049	0
0	1010	4845.104	0
0	1012	4848.6	0
0	1016	4864.475	0
0	1028	4911.7	20.192
0	1045	4958.037	64.431
0	1047	4961.659	55.203
0	1051	4975.358	57.753
0	1053	4976.836	45.36
0	1062	5018.082	84.318
0	1067	5038.126	92.004
0	1072	5070.561	124.341
0	1079	5192.86	164.601
0	1090	5249.063	0
0	1093	5273.897	0
0	1100	5306.407	0
0	1110	5409.435	0
0	1121	5462.002	0
0	1123	5464.273	0
0	1125	5468.508	0
0	1132	5488.573	0
0	1140	5518.498	0
0	1144	5526.926	0
0	1150	5547.476	12.513
0	1155	5555.767	0
0	1159	5560.714	3.836
0	1168	5588.845	11.614
0	1178	5652.496	0
0	1183	5682.206	19.345
0	1192	5706.619	0
0	1203	5753.794	0
0	1212	5802.1	0
0	1215	5807.378	0
0	1220	5837.278	0
0	1226	5885.388	0
0	1247	6127.918	0
0	1253	6161.565	0
0	1257	6193.375	0
0	1262	6238.267	0
0	1266	6248.929	0
0	1271	6273.704	0
0	1281	6303.966	0
0	1285	6336.06	0
0	1292	6362.01	0
0	1296	6399.344	0
0	1304	6459.504	0
0	1306	6462.39	0
0	1309	6469.572	0
0	1317	6496.711	0
0	1326	6531.363	0
0	1338	6649.102	0
0	1359	6920.166	0
0	1366	6938.118	0
0	1372	6994.525	0
0	1375	7001.183	0
0	1381	7024.266	0
0	1386	7054.288	0
0	1388	7054.432	0
0	1402	7130.078	0
0	1408	7147.26	0
0	1410	7150.221	0
0	1419	7209.488	0
0	1422	7239.84	0
0	1430	7300.177	0
0	1434	7321.568	0
0	1444	7389.273	0
0	1449	7446.663	0
0	1452	7467.951	0
0	1457	7508.273	0
0	1472	7623.012	52.99
0	1474	7629.706	58.534
0	1478	7639.692	57.155
0	1483	7652.98	42.872
0	1488	7667.975	22.725
0	1493	7674.388	0
0	1511	7724.661	48.974
0	1520	7782.267	88.416
0	1524	7787.283	67.189
0	1532	7841.738	121.122
0	1541	7906.062	183.102
0	1543	7912.218	180.785
0	1546	7923.048	170.573
0	1555	7938.619	153.508
0	1564	7975.125	86.523
0	1568	7997.203	94.105
0	1572	8014.256	88.172
0	1575	8036.05	103.377
0	1581	8055.91	98.378
0	1598	8187.1	0
0	1605	8236.418	0
0	1608	8259.146	0
0	1610	8259.762	0
0	1629	8427.994	0
0	1634	8482.351	0
0	1637	8506.94	0
0	1639	8513.916	0
0	1651	8558.104	0
0	1657	8649.236	0
0	1670	8719.077	0
0	1672	8724.126	0
0	1679	8768.418	0
0	1690	8869.603	0
0	1695	8917.32	0
0	1699	8947.231	0
0	1707	8966.038	0
0	1709	8966.918	0
0	1723	9002.875	0
0	1726	9010.701	0
0	1733	9105.33	0
0	1737	9120.758	0
0	1743	9160.556	0
0	1745	9163.777	0
0	1757	9239.834	0
0	1761	9265.28	0
0	1763	9271.974	0
0	1772	9318.552	0
0	1778	9346.452	1.359
0	1785	9379.043	0
0	1795	9418.534	0
0	1800	9436.324	0
0	1802	9444.081	0
0	1814	9494.684	26.651
0	1819	9506.524	36.583
0	1827	9548.372	50.52
0	1830	9576.046	53.814
0	1854	9818.934	0
0	1857	9830.957	0
0	1863	9869.435	0
0	1866	9879.493	0
0	1874	9946.352	0
0	1878	9972.42	0
0	1882	9996.129	0
0	1893	10027.594	0
0	1897	10050.906	0
0	1906	10083.226	0
0	1912	10157.998	0
0	1914	10160.28	0
0	1920	10187.567	0
0	1930	10247.796	0
0	1934	10275.217	0
0	1944	10357.786	0
0	1947	10377.027	0
0	1954	10411.633	0
0	1960	10429.886	18.049
0	1969	10475.766	0
0	1981	10515.127	0
0	1990	10564.83	0
0	1993	10586.558	0
0	2002	10692.883	0
0	2011	10789.957	0
0	2020	10867.339	0
0	2029	10954.097	0
0	2032	10966.95	0
0	2037	10998.952	0
0	2047	11027.825	0
0	2052	11052.287	0
0	2067	11163.033	0
0	2070	11170.075	0
0	2073	11185.732	0
0	2075	11189.758	0
0	2084	11236.933	0
0	2087	11252.018	0
0	2089	11256.639	0
0	2106	11344.824	0
0	2109	11367.694	0
0	2113	11379.274	0
0	2118	11403.535	0
0	2132	11451.748	0
0	2137	11459.345	0
0	2142	11487.564	0
0	2146	11496.39	0
0	2148	11505.869	0
0	2151	11516.895	0
0	2158	11531.947	0
0	2175	11590.98	35.501
0	2177	11594.725	27.812
0	2188	11666.413	84.941
0	2195	11715.043	124.581
0	2205	11752.712	156.512
0	2214	11783.743	131.019
0	2217	11797.882	95.055
0	2223	11807.614	86.401
0	2231	11846.091	100.109
0	2233	11847.144	96.578
0	2240	11877.644	109.03
0	2246	11896.566	123.679
0	2251	11914.077	106.778
0	2256	11923.231	113.842
0	2266	11962.891	99.016
0	2268	11969.868	63.039
0	2278	12015.674	99.274
0	2280	12020.453	80.65
0	2284	12025.058	19.309
0	2293	12073.978	26.839
0	2302	12091.975	0
0	2305	12107.214	0
0	2315	12137.481	0
0	2322	12176.171	0
0	2324	12179.652	0
0	2333	12214.245	0
0	2337	12226.282	0
0	2356	12391.635	0
0	2359	12410.895	0
0	2370	12515.107	0
0	2379	12647.916	0
0	2383	12662.597	0
0	2391	12731.836	0
0	2396	12769.297	0
0	2399	12774.505	0
0	2405	12811.677	0
0	2413	12830.98	0
0	2417	12848.578	0
0	2424	12917.246	0
0	2436	13034.092	0
0	2438	13036.611	0
0	2451	13128.715	0
0	2456	13172.448	0
0	2461	13209.432	0
0	2473	13311.31	0
0	2477	13329.108	0
0	2479	13336.879	0
0	2485	13345.723	0
0	2498	13482.551	0
0	2500	13483.855	0
0	2516	13585.504	0
0	2523	13666.008	0
0	2526	13676.023	0
0	2537	13760.567	0
0	2545	13827.292	0
0	2555	13964.498	0
0	2558	13972.875	0
0	2566	14021.793	0
0	2573	14093.228	0
0	2579	14125.591	0
0	2585	14164.113	0
0	2590	14205.604	0
0	2602	14357.858	0
0	2607	14391.417	0
0	2616	14426.531	0
0	2623	14475.384	0
0	2626	14497.784	0
0	2637	14608.767	0
0	2640	14633.005	0
0	2648	14672.119	0
0	2651	14698.591	0
0	2664	14761.751	0
0	2667	14774.505	0
0	2673	14840.981	0
0	2680	14891.199	0
0	2689	14961.692	0
0	2695	15014.946	0
0	2700	15060.291	0
0	2702	15064.163	0
0	2706	15094.421	0
0	2722	15184.597	0
0	2732	15300.519	0
0	2741	15393.173	0
0	2744	15401.681	0
0	2754	15444.346	0
0	2757	15450.298	0
0	2760	15471.47	0
0	2766	15501.322	0
0	2772	15527.244	0
0	2775	15539.795	0
0	2781	15565.312	0
0	2790	15616.482	48.322
0	2795	15636.956	15.689
0	2809	15698.156	0
0	2812	15711.858	0
0	2818	15728.024	0
0	2824	15737.364	0
0	2826	15740.976	0
0	2834	15772.332	0
0	2838	15780.33	0
0	2843	15788.065	1.753
0	2858	15847.284	46.055
0	2863	15911.804	109.958
0	2865	15920.174	105.877
0	2881	16021.63	82.458
0	2886	16043.905	89.716
0	2888	16044.249	77.339
0	2897	16063.822	92.085
0	2899	16070.491	42.459
0	2908	16135.759	86.962
0	2914	16159.026	95.851
0	2916	16167.615	21.773
0	2931	16220.26	52.051
0	2934	16230.776	36.593
0	2937	16253.356	43.623
0	2962	16413.994	0
0	2969	16462.284	0
0	2972	16481.447	0
0	2978	16519.854	0
0	2985	16602.502	0
0	2995	16696.4	0
0	2998	16709.324	0
0	3008	16807.269	0
0	3011	16821.327	0
0	3021	16893.492	0
0	3032	16966.265	0
0	3039	17035.19	0
0	3043	17065.324	0
0	3047	17087.494	0
0	3050	17098.374	0
0	3055	17116.3	0
0	3062	17157.807	0
0	3067	17179.097	0
0	3079	17233.103	0
0	3088	17308.14	0
0	3091	17337.126	0
0	3093	17338.063	0
0	3101	17361.567	0
0	3111	17406.735	0
0	3116	17413.962	0
0	3126	17469.855	0
0	3131	17491.735	0
0	3141	17563.509	0
0	3145	17593.015	0
0	3156	17637.099	0
0	3162	17662.676	0
0	3166	17684.71	0
0	3171	17715.441	0
0	3175	17731.161	0
0	3186	17825.552	0
0	3195	17921.143	0
0	3201	17947.192	0
0	3210	18034.388	0
0	3212	18035.735	0
0	3222	18140.04	0
0	3232	18256.414	0
0	3236	18290.796	0
0	3244	18412.264	0
0	3250	18444.098	0
0	3256	18483.455	0
0	3261	18509.605	0
0	3265	18534.154	0
0	3272	18555.367	0
0	3278	18585.816	0
0	3284	18603.352	0
0	3290	18692.826	0
0	3296	18725.841	0
0	3304	18754.397	24.389
0	3309	18764.074	9.943
0	3312	18769.263	11.669
0	3319	18792.028	4.331
0	3333	18869.733	0
0	3336	18874.385	0
0	3338	18877.338	0
0	3360	19039.571	0
0	3364	19071.965	0
0	3378	19206.189	0
0	3382	19245.696	0
0	3388	19275.152	0
0	3403	19531.609	0
0	3408	19584.525	0
0	3411	19601.441	0
0	3413	19609.006	0
0	3427	19782.731	0
0	3430	19789.361	0
0	3435	19801.412	0
0	3439	19810.35	0
0	3445	19834.868	0
0	3457	19977.789	0
0	3461	19984.296	0
0	3465	20015.403	0
0	3470	20061.676	0
0	3482	20131.526	25.385
0	3489	20174.026	46.49
0	3494	20199.078	67.999
0	3497	20204.59	39.439
0	3499	20210.894	32.144
0	3511	20284.943	0
0	3520	20358.869	0
0	3523	20378.116	0
0	3528	20392.363	2.121
0	3543	20473.655	0
0	3554	20569.215	0
0	3560	20593.973	0
0	3570	20674.959	0
0	3573	20693.786	0
0	3578	20712.229	0
0	3581	20730.475	0
0	3587	20749.778	0
0	3596	20805.095	0
0	3609	20864.906	0
0	3619	21005.258	0
0	3622	21022.854	0
0	3625	21034.309	0
0	3627	21037.67	0
0	3630	21045.695	0
0	3651	21265.047	0
0	3654	21281.197	0
0	3659	21297.462	0
0	3664	21306.948	0
0	3677	21387.738	0
0	3679	21396.635	0
0	3682	21399.149	0
0	3685	21412.119	0
0	3693	21433.853	0
0	3698	21445.233	0
0	3702	21456.342	6.988
0	3720	21548.231	0
0	3726	21592.905	0
0	3739	21706.746	0
0	3743	21737.613	0
0	3753	21832.035	0
0	3755	21833.132	0
0	3757	21837.557	0
0	3768	21887.319	0
0	3777	21957.241	0
0	3781	21967.337	0
0	3785	22007.016	0
0	3798	22091.908	0
0	3801	22111.129	0
0	3806	22144.153	0
0	3816	22260.564	0
0	3822	22316.561	0
0	3826	22353.834	0
0	3828	22359.7	0
0	3834	22373.624	8.752
0	3849	22468.947	88.387
0	3861	22564.54	132.188
0	3871	22592.194	145.552
0	3873	22597.366	128.315
0	3880	22634.195	94.255
0	3883	22645.401	103.259
0	3891	22664.646	95.402
0	3898	22701.97	132.506
0	3903	22774.519	190.841
0	3906	22792.704	142.521
0	3908	22796.57	141.383
0	3919	22822.968	22.08
0	3928	22871.794	49.252
0	3930	22883.331	60
0	3938	22918.014	0
0	3947	22962.526	0
0	3953	23002.428	0
0	3955	23005.128	0
0	3966	23037.858	20.881
0	3973	23049.856	27.604
0	3976	23054.191	28.796
0	3981	23074.659	26.604
0	3992	23156.699	59.912
0	3996	23168.284	16.622
0	4005	23212.909	0
0	4009	23233.033	0
0	4015	23279.51	0
0	4027	23326.184	0
0	4031	23351.489	0
0	4033	23353.743	0
0	4037	23361.143	6.922
0	4048	23393.952	0
0	4056	23451.023	0
0	4062	23477.382	0
0	4077	23602.387	0
0	4079	23605.637	0
0	4084	23615.062	0
0	4096	23677.745	0
0	4103	23713.575	0
0	4106	23741.008	0
0	4111	23778.959	0
0	4117	23819.926	0
0	4122	23846.068	0
0	4128	23867.845	1.68
0	4133	23874.399	5.632
0	4141	23914.017	12.306
0	4153	23959.699	41.274
0	4156	23981.209	46.654
0	4163	24003.34	51.54
0	4166	24010.347	7.309
0	4173	24035.639	4.176
0	4181	24064.703	0
0	4187	24094.108	0
0	4194	24124.918	0
0	4200	24146.068	13.601
0	4204	24155.984	0
0	4237	24507.377	0
0	4240	24524.864	0
0	4245	24558.133	0
0	4251	24572.798	0
0	4261	24660.826	0
0	4264	24675.867	0
0	4267	24689.354	0
0	4273	24723.245	0
0	4277	24748.494	0
0	4279	24752.395	0
0	4289	24790.091	0
0	4294	24814.624	0
0	4296	24816.672	0
0	4302	24850.08	0
0	4307	24858.485	2.18
0	4317	24914.053	36.343
0	4323	24929.378	0
0	4327	24941.701	0
0	4334	24957.284	7.626
0	4341	24964.058	9.301
0	4344	24975.517	13.977
0	4361	25068.928	0
0	4364	25071.241	0
0	4375	25165.134	0
0	4378	25174.262	0
0	4389	25250.657	0
0	4396	25305.5	0
0	4402	25339.162	0
0	4410	25380.492	0
0	4421	25463.249	0
0	4426	25506.611	0
0	4435	25576.477	0
0	4445	25616.268	0
0	4447	25618.133	0
0	4454	25671.583	0
0	4459	25735.224	0
0	4462	25744.78	0
0	4464	25745.002	0
0	4474	25818.589	0
0	4478	25861.355	0
0	4486	25898.065	27.685
0	4492	25918.066	40.832
0	4495	25930.803	28.269
0	4505	25994.226	0
0	4517	26121.21	0
0	4533	26270.771	0
0	4538	26303.81	0
0	4543	26392.564	0
0	4548	26408.457	0
0	4561	26548.178	0
0	4564	26552.906	0
0	4567	26566.153	0
0	4578	26633.646	0
0	4594	26726.309	0
0	4599	26762.826	0
0	4606	26821.933	0
0	4613	26849.579	0
0	4619	26900.782	0
0	4624	26973.761	0
0	4632	27017.491	0
0	4635	27051.011	0
0	4640	27068.69	0
0	4642	27072.503	0
0	4647	27108.712	0
0	4657	27129.512	0
0	4667	27180.501	0
0	4672	27200.596	0
0	4685	27304.393	0
0	4688	27315.2	0
0	4696	27389.944	0
0	4698	27390.27	0
0	4714	27500.887	0
0	4717	27511.526	0
0	4721	27534.623	0
0	4739	27612.921	0
0	4741	27613.424	0
0	4747	27656.36	0
0	4751	27670.347	0
0	4755	27704.346	0
0	4760	27731.746	0
0	4768	27794.508	0
0	4773	27841.306	0
0	4775	27842.256	0
0	4779	27880.788	0
0	4787	27918.549	0
0	4795	27949.643	0
0	4798	27959.214	0
0	4809	28017.096	0
0	4827	28275.4	0
0	4832	28288.592	0
0	4840	28331.753	0
0	4847	28403.369	0
0	4852	28412.789	0
0	4860	28464.09	0
0	4864	28500.536	0
0	4867	28502.47	0
0	4871	28517.056	0
0	4876	28551.474	0
0	4881	28589.926	0
0	4896	28639.591	0
0	4899	28641.576	0
0	4905	28666.921	0
0	4911	28697.634	0
0	4925	28769.252	0
0	4928	28786.373	0
0	4931	28796.137	0
0	4937	28813.73	0
0	4941	28834.318	0
0	4944	28841.207	0
0	4956	28916.54	0
0	4960	28933.726	0
0	4977	29068.229	128.381
0	4980	29098.627	118.221
0	4987	29137.032	135.264
0	4992	29170.655	143.015
0	4999	29216.924	182.195
0	5002	29232.413	97.975
0	5008	29254.381	62.646
0	5014	29298.864	49.37
0	5022	29351.048	32.206
0	5036	29420.382	0
0	5040	29455.05	0
0	5049	29515.687	0
0	5056	29552.593	0
0	5061	29572.711	0
0	5065	29590.373	0
0	5076	29670.638	0
0	5081	29682.471	0
0	5086	29718.564	0
0	5098	29776.346	0
0	5103	29820.218	0
0	5105	29826.867	0
0	5111	29848.802	0
0	5121	29956.342	0
0	5129	30025.031	0
0	5132	30051.527	0
0	5143	30092.788	0
0	5151	30144.592	0
0	5156	30204.494	0
0	5163	30254.91	0
0	5171	30299.151	0
0	5179	30364.258	0
0	5187	30403.775	0
0	5191	30423.877	0
0	5198	30458.824	0
0	5207	30512.097	0
0	5212	30556.862	0
0	5218	30612.378	0
0	5220	30617.192	0
0	5228	30652.375	0
0	5240	30743.172	0
0	5249	30783.395	0
0	5258	30841.025	0
0	5262	30880.876	0
0	5267	30892.227	0
0	5288	31111.912	0
0	5293	31147.327	0
0	5295	31149.928	0
0	5303	31230.558	0
0	5306	31258.432	0
0	5311	31281.761	0
0	5317	31336.337	0
0	5328	31422.828	0
0	5331	31433.889	0
0	5335	31446.289	0
0	5338	31459.647	0
0	5346	31492.87	0
0	5356	31545.508	0
0	5363	31589.581	0
0	5367	31620.718	0
0	5371	31639.849	0
0	5373	31648.371	0
0	5386	31691.076	33.296
0	5392	31716.01	55.577
0	5394	31718.244	33.901
0	5396	31727.6	28.789
0	5414	31791.52	47.928
0	5419	31828.347	83.241
0	5421	31835.353	75.796
0	5426	31846.063	55.93
0	5436	31878.842	0
0	5439	31889.525	0
0	5450	31956.301	12.151
0	5452	31960.672	4.736
0	5458	31972.059	0
0	5476	32089.235	0
0	5481	32098.243	0
0	5495	32247.649	0
0	5500	32254.59	0
0	5506	32324.433	0
0	5509	32332.635	0
0	5513	32357.192	0
0	5520	32376.179	0
0	5523	32389.421	0
0	5533	32451.601	0
0	5535	32459.171	0
0	5542	32488.496	0
0	5547	32508.41	0
0	5552	32522.276	9.234
0	5568	32707.376	0
0	5571	32740.34	0
0	5585	32801.378	0
0	5592	32844.196	0
0	5595	32865.737	0
0	5597	32869.979	0
0	5614	33022.069	0
0	5617	33036.532	0
0	5625	33086.834	0
0	5628	33097.859	0
0	5634	33157.644	0
0	5644	33195.018	0
0	5647	33203.064	0
0	5650	33207.337	0
0	5653	33217.98	0
0	5658	33226.557	0
0	5671	33310.694	0
0	5676	33316.551	0
0	5682	33355.697	0
0	5695	33452.7	0
0	5713	33585.173	0
0	5722	33699.22	0
0	5727	33736.783	0
0	5731	33776.003	0
0	5737	33881.003	0
0	5742	33931.833	0
0	5746	33939.238	0
0	5751	33960.398	0
0	5754	33976.369	0
0	5770	34037.086	0
0	5773	34061.306	0
0	5775	34061.709	0
0	5781	34092.943	0
0	5786	34125.837	0
0	5794	34199.156	0
0	5801	34219.256	0
0	5807	34224.132	0
0	5826	34355.549	0
0	5835	34418.817	0
0	5837	34420.41	0
0	5841	34425.275	0
0	5846	34439.505	0
0	5856	34495.428	0
0	5860	34519.301	0
0	5868	34578.799	0
0	5877	34772.616	0
0	5890	34897.737	0
0	5893	34909.809	0
0	5907	35079.04	0
0	5914	35118.167	0
0	5925	35204.299	0
0	5932	35271.787	0
0	5936	35300.192	0
0	5940	35327.214	0
0	5946	35390.94	0
0	5948	35395.883	0
0	5964	35550.971	0
0	5967	35560.689	0
0	5970	35576.699	0
0	5980	35640.707	0
0	5983	35656.642	0
0	5985	35662.964	0
0	5989	35673.84	0
0	5991	35678.046	0
0	5997	35693.505	8.786
0	6007	35723.679	22.434
0	6014	35733.325	0
0	6026	35808.124	0
0	6033	35857.127	0
0	6035	35858.316	0
0	6043	35868.608	0
0	6048	35893.638	0
0	6056	35904.231	0
0	6071	35994.881	0
0	6076	36007.834	0
0	6079	36015.073	0
0	6085	36041.924	0
0	6087	36043.291	0
0	6102	36116.858	0
0	6110	36198.228	0
0	6117	36247.026	0
0	6120	36257.651	0
0	6124	36286.815	0
0	6133	36316.603	0
0	6147	36416.644	0
0	6153	36447.926	0
0	6159	36535.994	0
0	6166	36606.88	0
0	6169	36631.843	0
0	6173	36648.617	0
0	6182	36680.574	0
0	6187	36692.601	0
0	6189	36692.863	0
0	6200	36767.296	0
0	6212	36855.84	0
0	6217	36873.57	0
0	6219	36875.972	0
0	6222	36880.208	0
0	6230	36903.992	0
0	6238	36942.54	0
0	6241	36945.387	0
0	6249	36975.144	0
0	6251	36976.121	0
0	6263	37054.116	58.411
0	6272	37114.952	73.716
0	6276	37150.028	86.912
0	6280	37197.538	99.987
0	6289	37202.768	0
0	6306	37277.602	0
0	6309	37308.234	0
0	6316	37328.891	0
0	6322	37365.737	0
0	6329	37385.704	0
0	6331	37386.439	0
0	6341	37443.453	0
0	6357	37607.119	0
0	6362	37678.905	0
0	6366	37694.9	0
0	6370	37726.968	0
0	6378	37783.418	0
0	6383	37820.85	0
0	6389	37844.604	0
0	6395	37862.483	0
0	6400	37892.114	0
0	6404	37916.948	0
0	6406	37919.38	0
0	6416	37964.168	28.426
0	6418	37964.498	21.427
0	6431	38010.374	38.065
0	6438	38053.211	76.031
0	6443	38102.557	65.921
0	6450	38165.639	0
0	6454	38180.842	3.355
0	6460	38202.338	0
0	6465	38214.779	4.821
0	6477	38265.955	0
0	6481	38292.491	0
0	6485	38302.873	0
0	6491	38317.402	7.754
0	6498	38339.691	0
0	6515	38459.408	0
0	6519	38483.246	0
0	6525	38534.468	0
0	6528	38568.594	0
0	6537	38590.962	19.346
0	6540	38598.474	7.665
0	6549	38640.934	8.406
0	6556	38702.524	24.945
0	6560	38714.037	0
0	6566	38736.593	9.364
0	6576	38842.235	20.961
0	6585	38904.931	0
0	6587	38910.514	0
0	6593	38927.209	2.047
0	6610	39012.819	0
0	6615	39043.282	0
0	6629	39100.954	0
0	6636	39148.062	0
0	6641	39206.053	0
0	6651	39324.12	0
0	6656	39373.021	0
0	6658	39378.185	0
0	6661	39388.008	0
0	6671	39438.066	0
0	6683	39540.003	0
0	6691	39604.513	0
0	6694	39613.304	0
0	6700	39690.694	0
0	6704	39720.229	0
0	6707	39734.755	0
0	6717	39855.53	0
0	6726	39929.24	0
0	6733	39965.481	0
0	6736	39974.259	0
0	6739	39999.309	0
0	6749	40048.3	0
0	6757	40076.62	0
0	6768	40096.944	0
0	6774	40144.435	0
0	6777	40166.868	0
0	6779	40173.519	0
0	6788	40204.623	0
0	6793	40229.878	0
0	6801	40254.043	0
0	6804	40258.892	0
0	6816	40325.809	0
0	6819	40344.166	0
0	6827	40435.498	0
0	6840	40499.186	0
0	6846	40512.201	0
0	6851	40553.539	0
0	6857	40573.883	0
0	6869	40652.458	0
0	6872	40663.42	0
0	6876	40680.777	0
0	6879	40686.035	0
0	6902	40867.218	0
0	6905	40871.715	0
0	6911	40954.759	0
0	6914	40975.235	0
0	6930	41148.254	0
0	6937	41184.236	0
0	6940	41191.968	0
0	6948	41233.108	0
0	6951	41260.612	0
0	6966	41415.078	0
0	6969	41430.796	0
0	6982	41549.702	0
0	6985	41569.549	0
0	6987	41570.043	0
0	6989	41573.659	0
0	7001	41633.909	0
0	7005	41648.315	0
0	7014	41693.928	0
0	7019	41751.329	0
0	7023	41768.41	0
0	7027	41781.552	0
0	7032	41795.337	0
0	7040	41826.919	0
0	7057	41946.435	0
0	7060	41972.193	0
0	7064	41987.098	0
0	7072	42012.84	0
0	7077	42053.428	0
0	7088	42189.084	0
0	7091	42206.662	0
0	7097	42230.673	0
0	7104	42307.037	0
0	7112	42354.29	0
0	7120	42374.642	0
0	7127	42419.255	0
0	7132	42468.69	0
0	7141	42536.429	0
0	7148	42595.147	0
0	7156	42636.331	0
0	7158	42640.286	0
0	7160	42640.632	0
0	7168	42663.747	0
0	7174	42695.128	0
0	7188	42841.514	70.327
0	7196	42981.692	167.174
0	7203	43068.873	243.101
0	7207	43089.871	228.871
0	7210	43102.153	105.644
0	7216	43122.11	0
0	7221	43134.814	11.964
1	2	0	0
1	5	7.812	0
1	7	10.653	0
1	10	15.887	0
1	12	16.31	0
1	20	47.886	0
1	30	121.995	0
1	32	122.209	0
1	43	198.577	0
1	46	200.931	0
1	48	208.691	0
1	51	224.141	0
1	55	236.762	0
1	61	242.241	0
1	67	258.281	1
1	71	276.24	2
1	73	276.84	1
1	78	302.659	2
1	81	323.121	3
1	83	328.106	4
1	85	343.671	3
1	88	348.422	4
1	90	351.141	5
1	92	357.188	4
1	95	361.583	5
1	97	369.517	6
1	99	374.477	5
1	103	378.554	6
1	106	397.706	5
1	109	405.946	6
1	115	440.8	5
1	117	455.347	6
1	120	464.604	7
1	124	481.427	8
1	128	499.55	9
1	131	504.322	8
1	133	505.495	7
1	136	524.848	6
1	139	530.465	7
1	143	531.343	6
1	145	535.926	5
1	149	541.11	6
1	151	541.209	5
1	154	548.032	4
1	161	561.989	5
1	163	567.482	4
1	172	610.295	5
1	175	620.013	6
1	177	627.15	5
1	180	643.575	4
1	182	644.512	3
1	187	664.17	4
1	190	669.001	5
1	192	673.3	6
1	195	680.777	7
1	199	685.428	8
1	202	697.59	9
1	205	714.264	8
1	207	716.259	7
1	211	722.079	6
1	214	726.908	7
1	218	744.007	6
1	220	745.185	5
1	225	757.572	6
1	231	786.132	7
1	235	807.646	6
1	238	828.222	7
1	243	858.648	6
1	245	864.149	7
1	248	876.281	8
1	252	897.149	9
1	257	940.919	10
1	261	966.96	11
1	264	984.901	12
1	267	986.001	11
1	270	989.226	10
1	273	1003.933	9
1	275	1004.258	8
1	282	1026.923	7
1	284	1042.237	6
1	290	1071.781	5
1	295	1084.016	6
1	298	1103.065	5
1	300	1103.683	4
1	305	1116.161	3
1	308	1123.954	4
1	311	1136.232	3
1	317	1156.4	4
1	319	1161.919	5
1	321	1176.441	6
1	323	1176.527	5
1	330	1249.333	4
1	332	1258.226	3
1	337	1264.321	4
1	339	1264.838	3
1	341	1266.835	2
1	343	1268.524	1
1	348	1289.569	2
1	352	1292.942	1
1	354	1298.762	0
1	361	1316.562	1
1	366	1349.402	2
1	368	1355.005	1
1	371	1379.583	2
1	374	1388.452	3
1	377	1412.474	4
1	379	1421.638	3
1	383	1456.031	4
1	386	1464.817	3
1	389	1496.164	2
1	394	1513.708	1
1	396	1514.382	0
1	399	1517.344	1
1	406	1575.033	2
1	408	1594.664	1
1	410	1596.945	0
1	423	1669.892	0
1	432	1706.425	0
1	434	1707.411	0
1	438	1736.057	0
1	444	1755.65	0
1	452	1798.826	0
1	464	1872.666	0
1	467	1899.651	0
1	469	1903.7	0
1	491	2045.232	0
1	494	2058.052	0
1	506	2127.741	0
1	509	2132.239	0
1	512	2155.004	0
1	518	2176.59	0
1	524	2203.601	0
1	530	2270.932	0
1	540	2350.562	0
1	548	2455.356	0
1	553	2493.707	0
1	559	2522.392	0
1	566	2556.479	0
1	575	2599.514	0
1	577	2608.015	0
1	581	2631.346	0
1	597	2731.644	0
1	608	2790.681	0
1	611	2818.509	0
1	616	2833.506	0
1	622	2868.485	0
1	627	2898.071	0
1	631	2937.71	0
1	637	2945.781	0
1	643	2971.626	0
1	646	2974.156	0
1	651	2997.37	0
1	660	3011.604	0
1	670	3066.564	0
1	681	3124.332	0
1	686	3158.015	0
1	694	3221.914	0
1	704	3338.773	0
1	711	3388.695	0
1	713	3391.564	0
1	716	3396.81	0
1	724	3479.235	0
1	730	3493.379	0
1	733	3505.537	0
1	738	3537.035	1
1	741	3541.292	2
1	743	3547.765	1
1	745	3551.098	0
1	751	3559.832	0
1	762	3603.602	0
1	773	3691.679	0
1	775	3696.285	0
1	781	3731.306	0
1	784	3743.07	1
1	787	3750.506	0
1	790	3758.752	1
1	792	3775.073	0
1	806	3808.227	0
1	816	3854.55	0
1	819	3863.115	0
1	829	3940.738	0
1	832	3954.147	0
1	837	3983.302	0
1	841	4016.254	0
1	846	4037.002	0
1	860	4108.969	0
1	869	4146.897	0
1	872	4152.502	0
1	879	4216.814	0
1	890	4316.842	0
1	892	4319.356	0
1	897	4342.19	0
1	903	4357.452	0
1	910	4380.096	0
1	919	4404.637	0
1	921	4407.042	0
1	930	4435.118	0
1	936	4461.581	0
1	942	4504.694	0
1	956	4558.982	0
1	961	4607.232	0
1	966	4652.048	0
1	969	4667.57	0
1	978	4694.198	0
1	981	4703.726	0
1	987	4716.039	0
1	996	4776.201	0
1	999	4796.049	0
1	1010	4845.104	0
1	1012	4848.6	0
1	1016	4864.475	0
1	1021	4891.508	1
1	1023	4893.606	2
1	1026	4906.456	3
1	1028	4911.7	2
1	1031	4917.605	3
1	1035	4931.476	4
1	1037	4933.764	5
1	1039	4946.122	6
1	1041	4946.22	7
1	1045	4958.037	6
1	1047	4961.659	5
1	1051	4975.358	4
1	1053	4976.836	3
1	1062	5018.082	2
1	1065	5028.259	3
1	1067	5038.126	2
1	1072	5070.561	1
1	1079	5192.86	0
1	1090	5249.063	0
1	1093	5273.897	0
1	1100	5306.407	0
1	1110	5409.435	0
1	1121	5462.002	0
1	1123	5464.273	0
1	1125	5468.508	0
1	1132	5488.573	0
1	1140	5518.498	0
1	1144	5526.926	0
1	1146	5534.963	1
1	1150	5547.476	0
1	1155	5555.767	0
1	1157	5556.878	1
1	1159	5560.714	0
1	1165	5577.231	1
1	1168	5588.845	0
1	1178	5652.496	0
1	1180	5662.861	1
1	1183	5682.206	0
1	1192	5706.619	0
1	1203	5753.794	0
1	1212	5802.1	0
1	1215	5807.378	0
1	1220	5837.278	0
1	1226	5885.388	0
1	1247	6127.918	0
1	1253	6161.565	0
1	1257	6193.375	0
1	1262	6238.267	0
1	1266	6248.929	0
1	1271	6273.704	0
1	1281	6303.966	0
1	1285	6336.06	0
1	1292	6362.01	0
1	1296	6399.344	0
1	1304	6459.504	0
1	1306	6462.39	0
1	1309	6469.572	0
1	1317	6496.711	0
1	1326	6531.363	0
1	1338	6649.102	0
1	1359	6920.166	0
1	1366	6938.118	0
1	1372	6994.525	0
1	1375	7001.183	0
1	1381	7024.266	0
1	1386	7054.288	0
1	1388	7054.432	0
1	1402	7130.078	0
1	1408	7147.26	0
1	1410	7150.221	0
1	1419	7209.488	0
1	1422	7239.84	0
1	1430	7300.177	0
1	1434	7321.568	0
1	1444	7389.273	0
1	1449	7446.663	0
1	1452	7467.951	0
1	1457	7508.273	0
1	1463	7570.022	1
1	1465	7571.172	2
1	1467	7582.537	3
1	1469	7610.108	4
1	1472	7623.012	3
1	1474	7629.706	2
1	1478	7639.692	1
1	1480	7645.25	2
1	1483	7652.98	1
1	1488	7667.975	0
1	1493	7674.388	0
1	1495	7675.687	1
1	1501	7693.851	2
1	1504	7720.094	3
1	1506	7720.616	4
1	1509	7722.96	5
1	1511	7724.661	4
1	1513	7731.433	5
1	1517	7752.475	6
1	1520	7782.267	5
1	1522	7785.111	6
1	1524	7787.283	5
1	1532	7841.738	4
1	1537	7888.602	5
1	1539	7903.098	6
1	1541	7906.062	5
1	1543	7912.218	4
1	1546	7923.048	3
1	1549	7926.084	4
1	1553	7932.673	5
1	1555	7938.619	4
1	1561	7957.532	5
1	1564	7975.125	4
1	1568	7997.203	3
1	1572	8014.256	2
1	1575	8036.05	1
1	1581	8055.91	0
1	1598	8187.1	0
1	1605	8236.418	0
1	1608	8259.146	0
1	1610	8259.762	0
1	1629	8427.994	0
1	1634	8482.351	0
1	1637	8506.94	0
1	1639	8513.916	0
1	1651	8558.104	0
1	1657	8649.236	0
1	1670	8719.077	0
1	1672	8724.126	0
1	1679	8768.418	0
1	1690	8869.603	0
1	1695	8917.32	0
1	1699	8947.231	0
1	1707	8966.038	0
1	1709	8966.918	0
1	1723	9002.875	0
1	1726	9010.701	0
1	1733	9105.33	0
1	1737	9120.758	0
1	1743	9160.556	0
1	1745	9163.777	0
1	1757	9239.834	0
1	1761	9265.28	0
1	1763	9271.974	0
1	1772	9318.552	0
1	1776	9345.093	1
1	1778	9346.452	0
1	1785	9379.043	0
1	1795	9418.534	0
1	1800	9436.324	0
1	1802	9444.081	0
1	1807	9468.033	1
1	1809	9469.941	2
1	1814	9494.684	1
1	1817	9497.852	2
1	1819	9506.524	1
1	1822	9522.232	2
1	1827	9548.372	1
1	1830	9576.046	0
1	1854	9818.934	0
1	1857	9830.957	0
1	1863	9869.435	0
1	1866	9879.493	0
1	1874	9946.352	0
1	1878	9972.42	0
1	1882	9996.129	0
1	1893	10027.594	0
1	1897	10050.906	0
1	1906	10083.226	0
1	1912	10157.998	0
1	1914	10160.28	0
1	1920	10187.567	0
1	1930	10247.796	0
1	1934	10275.217	0
1	1944	10357.786	0