version 2
run General-0-20220307-00:31:10-10080
attr configname General
attr datetime 20220307-00:31:10
attr experiment General
attr inifile omnetpp.ini
attr iterationvars $0=123
attr iterationvarsf 123-
attr measurement $0=123
attr network PolicyA
attr processid 10080
attr repetition 0
attr replication #0
attr resultdir results
attr runnumber 0
attr seedset 123

vector 0 PolicyA.queue "time spent on the queue" ETV
attr interpolationmode none
vector 1 PolicyA.queue "queue size after modification" ETV
attr interpolationmode none
vector 2 PolicyA.queue "queue size per minute" ETV
attr interpolationmode none
vector 3 PolicyA.queue "client processing order" ETV
attr interpolationmode none
vector 4 PolicyA.queue "processing time with client order" ETV
attr interpolationmode none
vector 5 PolicyA.queue "till processing order" ETV
attr interpolationmode none
vector 6 PolicyA.queue "client total time in the till" ETV
attr interpolationmode none
vector 7 PolicyA.source "number of clients entering the queue per timer interval" ETV
attr interpolationmode none
0	2	0	0
0	7	71.536	0
0	10	105.102	0
0	15	120.539	0
0	21	196.735	0
0	35	433.794	0
0	42	485.8	0
0	47	515.666	0
0	52	546.417	0
0	59	624.766	0
0	64	695.964	0
0	73	776.328	0
0	78	811.145	0
0	83	856.645	0
0	88	890.148	0
0	96	950.521	0
0	106	1031.414	0
0	111	1108.318	0
0	118	1172.122	0
0	123	1187.669	0
0	132	1203.704	0
0	137	1224.568	0
0	147	1314.604	0
0	154	1355.44	0
0	156	1360.253	0
0	163	1382.714	0
0	173	1515.077	0
0	177	1556.887	0
0	184	1607.307	0
0	190	1630.208	0
0	196	1671.475	0
0	209	1792.209	0
0	217	1833.259	0
0	222	1877.233	0
0	233	1960.782	0
0	243	2065.822	0
0	246	2085.758	0
0	252	2133.014	0
0	259	2158.017	0
0	266	2190.393	0
0	273	2312.516	0
0	280	2378.911	0
0	295	2487.771	0
0	300	2555.149	0
0	305	2566.718	0
0	307	2571.93	0
0	313	2594.627	0
0	317	2611.383	0
0	323	2652.294	0
0	332	2782.234	0
0	356	3092.165	0
0	361	3146.313	0
0	368	3188.773	0
0	371	3198.741	0
0	377	3285.335	0
0	384	3355.989	0
0	388	3370.772	0
0	392	3400.327	0
0	405	3516.177	0
0	407	3518.851	0
0	411	3534.634	0
0	416	3556.445	0
0	424	3604.244	0
0	433	3690.511	0
0	435	3693.15	0
0	446	3763.751	0
0	458	3850.074	0
0	461	3875.32	0
0	472	3999.372	0
0	474	4006.089	0
0	479	4022.575	0
0	481	4030.992	0
0	495	4160.66	0
0	506	4276.295	0
0	513	4344.273	0
0	516	4370.515	0
0	531	4492.273	0
0	535	4517.083	0
0	540	4556.141	0
0	545	4600.371	0
0	560	4751.827	0
0	569	4893.276	0
0	574	4940.011	0
0	579	4984.05	0
0	582	5005.098	0
0	603	5251.84	0
0	608	5295.581	0
0	613	5325.67	0
0	619	5385.777	0
0	627	5440.859	0
0	633	5466.652	0
0	644	5712.994	0
0	646	5713.316	0
0	650	5727.046	0
0	660	5857.839	0
0	665	5878.971	0
0	672	5980.977	0
0	677	6017.661	0
0	679	6021.858	0
0	690	6120.595	14.707
0	695	6144.13	20.512
0	709	6233.29	0
0	717	6333.263	0
0	722	6355.221	0
0	745	6649.708	0
0	750	6715.303	0
0	757	6757.177	0
0	761	6792.001	0
0	765	6803.988	0
0	771	6890.903	0
0	781	7018.796	0
0	789	7119.989	0
0	792	7131.278	0
0	807	7288.792	0
0	812	7313.597	0
0	819	7397.171	0
0	824	7411.002	0
0	833	7514.393	0
0	835	7519.372	0
0	838	7524.491	0
0	845	7564.353	0
0	849	7597.484	0
0	854	7631.539	0
0	864	7686.594	41.561
0	873	7802.56	116.447
0	876	7805.512	20.403
0	886	7849.053	0
0	898	8010.288	0
0	905	8030.687	0
0	912	8106.586	0
0	921	8213.913	0
0	932	8274.533	0
0	938	8341.722	0
0	942	8380.145	0
0	957	8582.497	0
0	960	8586.644	0
0	962	8590.237	0
0	970	8653.806	0
0	978	8805.727	0
0	985	8877.932	0
0	1004	9110.764	0
0	1014	9205.063	0
0	1017	9226.913	0
0	1022	9260.207	0
0	1028	9328.485	0
0	1031	9340.511	0
0	1039	9395.933	0
0	1042	9408.347	0
0	1048	9454.371	0
0	1051	9470.569	0
0	1054	9481.918	0
0	1070	9631.132	0
0	1073	9653.845	0
0	1085	9695.7	0
0	1088	9704.237	0
0	1092	9720.836	0
0	1094	9728.595	0
0	1104	9750.54	15.921
0	1114	9878.442	141.315
0	1118	9902.334	66.257
0	1133	10021.136	84.598
0	1135	10035.578	98.706
0	1138	10045.973	101.621
0	1143	10074.971	90.814
0	1149	10081.592	5.318
0	1156	10104.492	0
0	1165	10148.657	0
0	1175	10244.878	0
0	1183	10261.993	0
0	1187	10297.144	0
0	1193	10318.984	0
0	1196	10331.702	0
0	1206	10384.041	0
0	1211	10421.106	35.531
0	1220	10532.246	0
0	1224	10538.121	1.685
0	1235	10586.223	0
0	1240	10614.355	0
0	1245	10637.722	0
0	1250	10656.019	11.611
0	1260	10750.358	54.516
0	1264	10756.294	0.072
0	1274	10788.422	1.432
0	1281	10865.993	78.645
0	1295	11029.846	0
0	1302	11084.44	0
0	1308	11105.561	0
0	1318	11165.55	0
0	1325	11228.822	0
0	1328	11236.968	0
0	1332	11275.858	0
0	1334	11278.677	0
0	1345	11372.95	0
0	1353	11447.256	0
0	1369	11666.773	0
0	1379	11790.53	0
0	1388	11827.456	0
0	1391	11837.121	0
0	1409	12209.406	0
0	1415	12321.676	0
0	1421	12431.225	0
0	1423	12432.217	0
0	1429	12478.737	0
0	1432	12484.055	0
0	1436	12511.066	0
0	1439	12526.398	0
0	1449	12589.994	0
0	1456	12607.855	2.532
0	1474	12810.935	0
0	1479	12832.185	0
0	1481	12837.026	0
0	1488	12869.568	0
0	1495	12910.142	0
0	1513	13087.825	0
0	1520	13147.613	0
0	1524	13186.951	0
0	1533	13265.361	0
0	1535	13268.571	0
0	1542	13342.165	0
0	1550	13458.924	0
0	1558	13497.017	0
0	1564	13565.553	0
0	1568	13609.822	0
0	1576	13710.086	0
0	1579	13736.003	0
0	1586	13761.81	0
0	1592	13792.501	0
0	1598	13820.156	0
0	1603	13840.015	13.271
0	1618	13993.261	0
0	1632	14126.987	0
0	1635	14140.836	0
0	1639	14160.743	0
0	1644	14185.342	0
0	1652	14273.865	0
0	1669	14466.023	0
0	1680	14574.374	0
0	1684	14581.867	0
0	1691	14624.741	0
0	1693	14630.544	0
0	1700	14677.393	0
0	1705	14727.278	0
0	1712	14803.732	0
0	1715	14818.295	0
0	1722	14860.482	0
0	1735	14941.714	0
0	1739	14994.726	0
0	1748	15065.773	0
0	1766	15302.159	0
0	1769	15318.051	0
0	1772	15325.148	0
0	1781	15407.538	0
0	1785	15440.277	0
0	1789	15477.799	0
0	1796	15562.366	0
0	1812	15746.719	0
0	1817	15796.295	0
0	1828	15866.252	0
0	1835	15910.123	0
0	1842	16009.441	0
0	1845	16012.77	0
0	1847	16013.133	0
0	1850	16020.601	0
0	1854	16026.089	0
0	1864	16085.497	0
0	1868	16099.69	0
0	1871	16103.886	0
0	1881	16173.28	36.586
0	1897	16372.942	0
0	1910	16535.029	0
0	1919	16574.015	0
0	1921	16576.678	0
0	1928	16621.234	0
0	1933	16656.477	0
0	1939	16708.697	0
0	1942	16732.973	0
0	1949	16770.596	0
0	1958	16828.283	0
0	1963	16916.494	0
0	1966	16927.318	0
0	1986	17083.072	0
0	1991	17125.8	0
0	2004	17281.141	0
0	2011	17382.699	0
0	2020	17481.137	0
0	2030	17743.348	0
0	2039	17810.883	0
0	2043	17842.101	0
0	2049	17905.444	0
0	2052	17923.804	0
0	2062	18003.086	0
0	2065	18015.352	0
0	2067	18016.758	0
0	2085	18201.268	0
0	2095	18332.142	0
0	2101	18360.054	0
0	2114	18527.637	0
0	2116	18528.884	0
0	2120	18534.962	0
0	2130	18685.095	0
0	2133	18713.053	0
0	2135	18719.984	0
0	2157	18987.557	0
0	2164	19052.589	0
0	2166	19053.019	0
0	2170	19069.892	0
0	2172	19073.776	0
0	2174	19074.571	0
0	2187	19138.724	0
0	2192	19185.69	0
0	2197	19225.056	0
0	2205	19288.416	0
0	2210	19302.145	0
0	2212	19310.82	0
0	2223	19399.166	0
0	2230	19472.368	0
0	2237	19543.992	10.249
0	2267	19943.502	0
0	2276	20134.283	0
0	2279	20136.651	0
0	2283	20164.84	0
0	2290	20250.52	0
0	2292	20253.894	0
0	2299	20333.035	0
0	2303	20346.83	0
0	2306	20367.744	0
0	2314	20417.951	0
0	2319	20451.229	24.845
0	2326	20470.432	0
0	2345	20736.887	0
0	2348	20749.228	0
0	2350	20749.233	0
0	2363	20837.272	0
0	2366	20869.492	0
0	2378	20920.041	0
0	2382	20949.926	0
0	2385	20956.651	0
0	2388	20964.842	0
0	2406	21061.279	0
0	2409	21083.165	0
0	2415	21174.359	0
0	2425	21272.146	0
0	2428	21293.89	0
0	2440	21447.248	0
0	2451	21537.979	0
0	2458	21572.91	0
0	2461	21595.173	0
0	2467	21625.579	0
0	2471	21634.712	0
0	2479	21692.324	0
0	2491	21796.352	0
0	2496	21819.726	0
0	2502	21878.89	0
0	2508	21969.532	0
0	2511	21995.212	0
0	2513	21997.285	0
0	2528	22134.528	0
0	2535	22199.463	0
0	2540	22219.132	0
0	2542	22227.88	0
0	2556	22298.228	0
0	2559	22315.29	0
0	2563	22322.48	0
0	2571	22379.924	12.794
0	2588	22554.89	0
0	2595	22614.209	0
0	2599	22627.945	0
0	2604	22675.388	0
0	2609	22725.981	0
0	2613	22768.828	0
0	2627	22883.843	0
0	2639	22985.772	0
0	2644	23012.42	0
0	2650	23058.244	0
0	2653	23071.796	0
0	2661	23134.347	0
0	2667	23160.849	0
0	2672	23205.761	0
0	2680	23311.314	0
0	2683	23320.615	0
0	2693	23412	0
0	2702	23446.991	0
0	2715	23567.785	0
0	2727	23770.468	0
0	2737	23893.546	0
0	2746	23956.221	0
0	2749	23980.721	0
0	2759	24095.536	0
0	2762	24110.322	0
0	2769	24208.53	0
0	2777	24320.495	0
0	2786	24395.969	0
0	2788	24398.345	0
0	2799	24441.899	0
0	2804	24507.21	0
0	2808	24541.464	0
0	2815	24650.514	0
0	2819	24695.27	0
0	2829	24758.717	0
0	2836	24806.549	0
0	2845	24841.378	0
0	2852	24913.889	0
0	2854	24920.796	0
0	2869	25113.837	0
0	2872	25121.859	0
0	2884	25180.854	0
0	2889	25206.858	0
0	2893	25235.219	0
0	2901	25299.321	0
0	2908	25338.036	0
0	2918	25448.581	0
0	2921	25458.454	0
0	2924	25469.352	0
0	2928	25490.631	0
0	2946	25721.087	0
0	2957	25804.444	0
0	2960	25821.17	0
0	2970	25982.203	0
0	2978	26030.729	0
0	2983	26093.272	0
0	2985	26095.065	0
0	2989	26106.927	0
0	2999	26173.025	0
0	3018	26357.96	0
0	3021	26377.469	0
0	3030	26446.759	0
0	3034	26472.911	0
0	3042	26537.422	0
0	3045	26552.401	0
0	3055	26724.474	0
0	3065	26857.938	0
0	3068	26873.273	0
0	3077	26957.013	0
0	3082	26993.32	0
0	3090	27026.587	0
0	3098	27045.818	0
0	3104	27100.903	0
0	3110	27200.115	0
0	3115	27230.726	0
0	3120	27244.646	0
0	3126	27320.283	0
0	3130	27330.983	0
0	3140	27436.576	0
0	3151	27489.986	0
0	3156	27547.396	0
0	3162	27611.714	0
0	3175	27688.777	0
0	3184	27775.58	0
0	3188	27783.149	0
0	3190	27783.275	0
0	3194	27798.492	0
0	3206	27981.299	0
0	3215	28030.214	0
0	3222	28118.439	0
0	3225	28131.124	0
0	3243	28242.628	0
0	3245	28242.883	0
0	3252	28280.62	0
0	3255	28292.073	0
0	3266	28433.324	0
0	3271	28478.946	0
0	3274	28497.951	0
0	3281	28534.997	0
0	3285	28559.781	0
0	3292	28595.812	0
0	3303	28718.396	0
0	3308	28799.659	0
0	3321	28912.495	0
0	3332	28962.397	0
0	3340	29040.303	0
0	3343	29063.784	0
0	3350	29190.573	0
0	3352	29199.283	0
0	3376	29512.68	0
0	3381	29572.239	0
0	3388	29630.953	0
0	3399	29802.827	0
0	3408	29940.215	0
0	3412	29976.471	0
0	3422	30045.6	0
0	3426	30061.719	0
0	3428	30063.382	0
0	3435	30111.351	0
0	3437	30117.908	0
0	3442	30146.01	0
0	3449	30211.278	0
0	3462	30411.508	0
0	3465	30415.861	0
0	3475	30452.799	0
0	3478	30469.634	0
0	3487	30553.417	0
0	3498	30684.068	0
0	3501	30695.281	0
0	3506	30709.393	0
0	3517	30758.578	0
0	3522	30816.438	0
0	3524	30817.295	0
0	3531	30871.843	0
0	3540	30939.945	0
0	3557	31116.269	0
0	3560	31129.197	0
0	3572	31213.469	0
0	3575	31222.98	0
0	3578	31242.69	0
0	3583	31261.757	0
0	3588	31285.27	0
0	3594	31341.993	0
0	3606	31450.243	0
0	3610	31455.213	0
0	3617	31514.057	0
0	3628	31576.16	0
0	3633	31623.383	0
0	3644	31717.365	0
0	3647	31731.193	0
0	3653	31776.279	0
0	3658	31791.463	0
0	3677	32099.364	0
0	3685	32204.859	0
0	3700	32408.9	0
0	3703	32417.076	0
0	3706	32440.248	0
0	3723	32705.3	0
0	3725	32708.865	0
0	3728	32716.153	0
0	3732	32738.167	0
0	3735	32741.408	0
0	3749	32826.36	0
0	3753	32859.036	0
0	3755	32864.302	0
0	3758	32878.093	0
0	3762	32892.187	0
0	3773	32961.465	0
0	3789	33143.805	0
0	3796	33173.571	0
0	3804	33219.108	0
0	3809	33267.805	0
0	3813	33303.95	0
0	3821	33416.843	0
0	3825	33434.097	0
0	3828	33452.817	0
0	3834	33478.743	0
0	3843	33510.753	3.018
0	3852	33561.496	30.705
0	3854	33564.488	20.371
0	3876	33760.266	186.495
0	3878	33765.484	187.764
0	3882	33779.8	168.112
0	3886	33788.097	155.523
0	3889	33805.885	165.751
0	3900	33841.891	95.957
0	3903	33883.757	49.414
0	3911	33952.47	0
0	3933	34146.054	0
0	3937	34178.37	0
0	3940	34189.786	0
0	3945	34212.184	0
0	3957	34364.451	0
0	3962	34426.932	0
0	3978	34679.096	0
0	3982	34692.211	0
0	3990	34764.133	0
0	3998	34847.7	0
0	4002	34878.615	0
0	4012	34931.752	0
0	4023	35107.977	0
0	4026	35124.425	0
0	4034	35200.393	0
0	4039	35236.868	0
0	4046	35318.722	0
0	4053	35411.105	0
0	4060	35440.498	0
0	4076	35622.705	0
0	4082	35742.961	0
0	4089	35805.865	0
0	4097	35903.136	0
0	4109	36113.727	0
0	4113	36144.365	0
0	4122	36247.829	0
0	4127	36259.57	0
0	4133	36323.38	0
0	4141	36425.364	0
0	4143	36431.574	0
0	4151	36564.035	0
0	4156	36579.974	0
0	4169	36722.71	0
0	4174	36780.742	0
0	4179	36792.246	0
0	4182	36814.272	0
0	4190	36842.768	0
0	4198	36918.882	0
0	4200	36919.833	0
0	4211	36968.792	0
0	4225	37087.652	0
0	4229	37121.239	0
0	4244	37362.287	0
0	4253	37411.256	0
0	4261	37543.798	0
0	4264	37555.984	0
0	4273	37674.18	0
0	4279	37786.35	0
0	4291	37856.549	0
0	4300	37992.597	0
0	4305	38088.334	0
0	4309	38101.311	0
0	4311	38109.293	0
0	4325	38314.886	0
0	4329	38344.125	0
0	4338	38410.282	0
0	4343	38422.115	0
0	4351	38489.353	0
0	4356	38533.328	0
0	4363	38604.454	0
0	4380	38804.432	0
0	4385	38848.506	0
0	4388	38872.652	0
0	4393	38908.93	0
0	4399	38992.22	0
0	4403	39002.505	0
0	4407	39028.589	0
0	4410	39036.196	0
0	4415	39048.088	0
0	4435	39134.598	84.066
0	4437	39140.321	75.982
0	4444	39201.157	108.317
0	4448	39221.146	109.949
0	4455	39294.998	182.849
0	4457	39296.943	81.05
0	4464	39327.935	8.83
0	4478	39423.08	0
0	4485	39507.353	0
0	4494	39575.444	0
0	4503	39672.636	0
0	4508	39705.431	0
0	4521	39783.37	0
0	4525	39819.047	0
0	4527	39826.453	0
0	4530	39839.349	0
0	4544	39971.545	0
0	4551	40035.039	0
0	4558	40060.936	0
0	4561	40065.919	0
0	4568	40091.131	0
0	4574	40126.438	0
0	4580	40160.401	0
0	4587	40205.307	0
0	4590	40246.593	0
0	4601	40348.819	0
0	4604	40379.935	0
0	4626	40522.615	0
0	4629	40539.163	0
0	4639	40603.273	0
0	4641	40604.299	0
0	4646	40623.819	0
0	4652	40667.919	0
0	4656	40711.345	0
0	4660	40735.037	0
0	4668	40795.798	0
0	4676	40857.051	0
0	4682	40881.422	0
0	4685	40895.247	0
0	4709	41147.567	0
0	4716	41184.912	0
0	4723	41233.36	0
0	4726	41242.832	0
0	4733	41347.362	0
0	4739	41417.81	0
0	4742	41449.763	0
0	4744	41450.014	0
0	4748	41454.375	0
0	4755	41475.339	0
0	4765	41549.378	26.756
0	4770	41574.612	10.409
0	4780	41616.868	37.641
0	4789	41653.352	51.106
0	4792	41685.254	48.371
0	4798	41734.413	90.883
0	4805	41802.693	61.557
0	4811	41839.322	0
0	4817	41846.536	2.616
0	4827	41917.425	0
0	4836	41974.171	0
0	4842	42036.444	0
0	4851	42086.879	0
0	4854	42117.3	0
0	4864	42157.585	0
0	4868	42183.557	0
0	4876	42279.584	0
0	4906	42668.108	0
0	4911	42760.057	0
0	4913	42762.828	0
0	4918	42793.326	0
0	4923	42804.576	0
0	4927	42837.815	0
0	4930	42840.441	0
0	4938	42917.009	0
0	4948	42962.416	0
0	4953	43016.702	0
0	4961	43083.12	0
0	4964	43105.909	0
1	2	0	0
1	7	71.536	0
1	10	105.102	0
1	15	120.539	0
1	21	196.735	0
1	35	433.794	0
1	42	485.8	0
1	47	515.666	0
1	52	546.417	0
1	59	624.766	0
1	64	695.964	0
1	73	776.328	0
1	78	811.145	0
1	83	856.645	0
1	88	890.148	0
1	96	950.521	0
1	106	1031.414	0
1	111	1108.318	0
1	118	1172.122	0
1	123	1187.669	0
1	132	1203.704	0
1	137	1224.568	0
1	147	1314.604	0
1	154	1355.44	0
1	156	1360.253	0
1	163	1382.714	0
1	173	1515.077	0
1	177	1556.887	0
1	184	1607.307	0
1	190	1630.208	0
1	196	1671.475	0
1	209	1792.209	0
1	217	1833.259	0
1	222	1877.233	0
1	233	1960.782	0
1	243	2065.822	0
1	246	2085.758	0
1	252	2133.014	0
1	259	2158.017	0
1	266	2190.393	0
1	273	2312.516	0
1	280	2378.911	0
1	295	2487.771	0
1	300	2555.149	0
1	305	2566.718	0
1	307	2571.93	0
1	313	2594.627	0
1	317	2611.383	0
1	323	2652.294	0
1	332	2782.234	0
1	356	3092.165	0
1	361	3146.313	0
1	368	3188.773	0
1	371	3198.741	0
1	377	3285.335	0
1	384	3355.989	0
1	388	3370.772	0
1	392	3400.327	0
1	405	3516.177	0
1	407	3518.851	0
1	411	3534.634	0
1	416	3556.445	0
1	424	3604.244	0
1	433	3690.511	0
1	435	3693.15	0
1	446	3763.751	0
1	458	3850.074	0
1	461	3875.32	0
1	472	3999.372	0
1	474	4006.089	0
1	479	4022.575	0
1	481	4030.992	0
1	495	4160.66	0
1	506	4276.295	0
1	513	4344.273	0
1	516	4370.515	0
1	531	4492.273	0
1	535	4517.083	0
1	540	4556.141	0
1	545	4600.371	0
1	560	4751.827	0
1	569	4893.276	0
1	574	4940.011	0
1	579	4984.05	0
1	582	5005.098	0
1	603	5251.84	0
1	608	5295.581	0
1	613	5325.67	0
1	619	5385.777	0
1	627	5440.859	0
1	633	5466.652	0
1	644	5712.994	0
1	646	5713.316	0
1	650	5727.046	0
1	660	5857.839	0
1	665	5878.971	0
1	672	5980.977	0
1	677	6017.661	0
1	679	6021.858	0
1	687	6105.888	1
1	690	6120.595	0
1	692	6123.618	1
1	695	6144.13	0
1	709	6233.29	0
1	717	6333.263	0
1	722	6355.221	0
1	745	6649.708	0
1	750	6715.303	0
1	757	6757.177	0
1	761	6792.001	0
1	765	6803.988	0
1	771	6890.903	0
1	781	7018.796	0
1	789	7119.989	0
1	792	7131.278	0
1	807	7288.792	0
1	812	7313.597	0
1	819	7397.171	0
1	824	7411.002	0
1	833	7514.393	0
1	835	7519.372	0
1	838	7524.491	0
1	845	7564.353	0
1	849	7597.484	0
1	854	7631.539	0
1	856	7645.033	1
1	862	7686.113	2
1	864	7686.594	1
1	869	7785.109	2
1	873	7802.56	1
1	876	7805.512	0
1	886	7849.053	0
1	898	8010.288	0
1	905	8030.687	0
1	912	8106.586	0
1	921	8213.913	0
1	932	8274.533	0
1	938	8341.722	0
1	942	8380.145	0
1	957	8582.497	0
1	960	8586.644	0
1	962	8590.237	0
1	970	8653.806	0
1	978	8805.727	0
1	985	8877.932	0
1	1004	9110.764	0
1	1014	9205.063	0
1	1017	9226.913	0
1	1022	9260.207	0
1	1028	9328.485	0
1	1031	9340.511	0
1	1039	9395.933	0
1	1042	9408.347	0
1	1048	9454.371	0
1	1051	9470.569	0
1	1054	9481.918	0
1	1070	9631.132	0
1	1073	9653.845	0
1	1085	9695.7	0
1	1088	9704.237	0
1	1092	9720.836	0
1	1094	9728.595	0
1	1097	9734.619	1
1	1100	9737.127	2
1	1104	9750.54	1
1	1111	9836.077	2
1	1114	9878.442	1
1	1118	9902.334	0
1	1123	9936.538	1
1	1125	9936.872	2
1	1127	9944.352	3
1	1130	9984.157	4
1	1133	10021.136	3
1	1135	10035.578	2
1	1138	10045.973	1
1	1143	10074.971	0
1	1145	10076.274	1
1	1149	10081.592	0
1	1156	10104.492	0
1	1165	10148.657	0
1	1175	10244.878	0
1	1183	10261.993	0
1	1187	10297.144	0
1	1193	10318.984	0
1	1196	10331.702	0
1	1206	10384.041	0
1	1208	10385.575	1
1	1211	10421.106	0
1	1220	10532.246	0
1	1222	10536.436	1
1	1224	10538.121	0
1	1235	10586.223	0
1	1240	10614.355	0
1	1245	10637.722	0
1	1247	10644.408	1
1	1250	10656.019	0
1	1256	10695.842	1
1	1260	10750.358	0
1	1262	10756.222	1
1	1264	10756.294	0
1	1269	10786.99	1
1	1271	10787.348	2
1	1274	10788.422	1
1	1281	10865.993	0
1	1295	11029.846	0
1	1302	11084.44	0
1	1308	11105.561	0
1	1318	11165.55	0
1	1325	11228.822	0
1	1328	11236.968	0
1	1332	11275.858	0
1	1334	11278.677	0
1	1345	11372.95	0
1	1353	11447.256	0
1	1369	11666.773	0
1	1379	11790.53	0
1	1388	11827.456	0
1	1391	11837.121	0
1	1409	12209.406	0
1	1415	12321.676	0
1	1421	12431.225	0
1	1423	12432.217	0
1	1429	12478.737	0
1	1432	12484.055	0
1	1436	12511.066	0
1	1439	12526.398	0
1	1449	12589.994	0
1	1454	12605.323	1
1	1456	12607.855	0
1	1474	12810.935	0
1	1479	12832.185	0
1	1481	12837.026	0
1	1488	12869.568	0
1	1495	12910.142	0
1	1513	13087.825	0
1	1520	13147.613	0
1	1524	13186.951	0
1	1533	13265.361	0
1	1535	13268.571	0
1	1542	13342.165	0
1	1550	13458.924	0
1	1558	13497.017	0
1	1564	13565.553	0
1	1568	13609.822	0
1	1576	13710.086	0
1	1579	13736.003	0
1	1586	13761.81	0
1	1592	13792.501	0
1	1598	13820.156	0
1	1600	13826.744	1
1	1603	13840.015	0
1	1618	13993.261	0
1	1632	14126.987	0
1	1635	14140.836	0
1	1639	14160.743	0
1	1644	14185.342	0
1	1652	14273.865	0
1	1669	14466.023	0
1	1680	14574.374	0
1	1684	14581.867	0
1	1691	14624.741	0
1	1693	14630.544	0
1	1700	14677.393	0
1	1705	14727.278	0
1	1712	14803.732	0
1	1715	14818.295	0
1	1722	14860.482	0
1	1735	14941.714	0
1	1739	14994.726	0
1	1748	15065.773	0
1	1766	15302.159	0
1	1769	15318.051	0
1	1772	15325.148	0
1	1781	15407.538	0
1	1785	15440.277	0
1	1789	15477.799	0
1	1796	15562.366	0
1	1812	15746.719	0
1	1817	15796.295	0
1	1828	15866.252	0
1	1835	15910.123	0
1	1842	16009.441	0
1	1845	16012.77	0
1	1847	16013.133	0
1	1850	16020.601	0
1	1854	16026.089	0
1	1864	16085.497	0
1	1868	16099.69	0
1	1871	16103.886	0
1	1877	16136.694	1
1	1881	16173.28	0
1	1897	16372.942	0
1	1910	16535.029	0
1	1919	16574.015	0
1	1921	16576.678	0
1	1928	16621.234	0
1	1933	16656.477	0
1	1939	16708.697	0
1	1942	16732.973	0
1	1949	16770.596	0
1	1958	16828.283	0
1	1963	16916.494	0
1	1966	16927.318	0
1	1986	17083.072	0
1	1991	17125.8	0
1	2004	17281.141	0
1	2011	17382.699	0
1	2020	17481.137	0
1	2030	17743.348	0
1	2039	17810.883	0
1	2043	17842.101	0
1	2049	17905.444	0
1	2052	17923.804	0
1	2062	18003.086	0
1	2065	18015.352	0
1	2067	18016.758	0
1	2085	18201.268	0
1	2095	18332.142	0
1	2101	18360.054	0
1	2114	18527.637	0
1	2116	18528.884	0
1	2120	18534.962	0
1	2130	18685.095	0
1	2133	18713.053	0
1	2135	18719.984	0
1	2157	18987.557	0
1	2164	19052.589	0
1	2166	19053.019	0
1	2170	19069.892	0
1	2172	19073.776	0
1	2174	19074.571	0
1	2187	19138.724	0
1	2192	19185.69	0
1	2197	19225.056	0
1	2205	19288.416	0
1	2210	19302.145	0
1	2212	19310.82	0
1	2223	19399.166	0
1	2230	19472.368	0
1	2235	19533.743	1
1	2237	19543.992	0
1	2267	19943.502	0
1	2276	20134.283	0
1	2279	20136.651	0
1	2283	20164.84	0
1	2290	20250.52	0
1	2292	20253.894	0
1	2299	20333.035	0
1	2303	20346.83	0
1	2306	20367.744	0
1	2314	20417.951	0
1	2316	20426.384	1
1	2319	20451.229	0
1	2326	20470.432	0
1	2345	20736.887	0
1	2348	20749.228	0
1	2350	20749.233	0
1	2363	20837.272	0
1	2366	20869.492	0
1	2378	20920.041	0
1	2382	20949.926	0
1	2385	20956.651	0
1	2388	20964.842	0
1	2406	21061.279	0
1	2409	21083.165	0
1	2415	21174.359	0
1	2425	21272.146	0
1	2428	21293.89	0
1	2440	21447.248	0
1	2451	21537.979	0
1	2458	21572.91	0
1	2461	21595.173	0
1	2467	21625.579	0
1	2471	21634.712	0
1	2479	21692.324	0
1	2491	21796.352	0
1	2496	21819.726	0
1	2502	21878.89	0
1	2508	21969.532	0
1	2511	21995.212	0
1	2513	21997.285	0
1	2528	22134.528	0
1	2535	22199.463	0
1	2540	22219.132	0
1	2542	22227.88	0
1	2556	22298.228	0
1	2559	22315.29	0
1	2563	22322.48	0
1	2569	22367.13	1
1	2571	22379.924	0
1	2588	22554.89	0
1	2595	22614.209	0
1	2599	22627.945	0
1	2604	22675.388	0
1	2609	22725.981	0
1	2613	22768.828	0
1	2627	22883.843	0
1	2639	22985.772	0
1	2644	23012.42	0
1	2650	23058.244	0
1	2653	23071.796	0
1	2661	23134.347	0
1	2667	23160.849	0
1	2672	23205.761	0
1	2680	23311.314	0
1	2683	23320.615	0
1	2693	23412	0
1	2702	23446.991	0
1	2715	23567.785	0
1	2727	23770.468	0
1	2737	23893.546	0
1	2746	23956.221	0
1	2749	23980.721	0
1	2759	24095.536	0
1	2762	24110.322	0
1	2769	24208.53	0
1	2777	24320.495	0
1	2786	24395.969	0
1	2788	24398.345	0
1	2799	24441.899	0
1	2804	24507.21	0
1	2808	24541.464	0
1	2815	24650.514	0
1	2819	24695.27	0
1	2829	24758.717	0
1	2836	24806.549	0
1	2845	24841.378	0
1	2852	24913.889	0
1	2854	24920.796	0
1	2869	25113.837	0
1	2872	25121.859	0
1	2884	25180.854	0
1	2889	25206.858	0
1	2893	25235.219	0
1	2901	25299.321	0
1	2908	25338.036	0
1	2918	25448.581	0
1	2921	25458.454	0
1	2924	25469.352	0
1	2928	25490.631	0
1	2946	25721.087	0
1	2957	25804.444	0
1	2960	25821.17	0
1	2970	25982.203	0
1	2978	26030.729	0
1	2983	26093.272	0
1	2985	26095.065	0
1	2989	26106.927	0
1	2999	26173.025	0
1	3018	26357.96	0
1	3021	26377.469	0
1	3030	26446.759	0
1	3034	26472.911	0
1	3042	26537.422	0
1	3045	26552.401	0
1	3055	26724.474	0
1	3065	26857.938	0
1	3068	26873.273	0
1	3077	26957.013	0
1	3082	26993.32	0
1	3090	27026.587	0
1	3098	27045.818	0
1	3104	27100.903	0
1	3110	27200.115	0
1	3115	27230.726	0
1	3120	27244.646	0
1	3126	27320.283	0
1	3130	27330.983	0
1	3140	27436.576	0
1	3151	27489.986	0
1	3156	27547.396	0
1	3162	27611.714	0
1	3175	27688.777	0
1	3184	27775.58	0
1	3188	27783.149	0
1	3190	27783.275	0
1	3194	27798.492	0
1	3206	27981.299	0
1	3215	28030.214	0
1	3222	28118.439	0
1	3225	28131.124	0
1	3243	28242.628	0
1	3245	28242.883	0
1	3252	28280.62	0
1	3255	28292.073	0
1	3266	28433.324	0
1	3271	28478.946	0
1	3274	28497.951	0
1	3281	28534.997	0
1	3285	28559.781	0
1	3292	28595.812	0
1	3303	28718.396	0
1	3308	28799.659	0
1	3321	28912.495	0
1	3332	28962.397	0
1	3340	29040.303	0
1	3343	29063.784	0
1	3350	29190.573	0
1	3352	29199.283	0
1	3376	29512.68	0
1	3381	29572.239	0
1	3388	29630.953	0
1	3399	29802.827	0
1	3408	29940.215	0
1	3412	29976.471	0
1	3422	30045.6	0
1	3426	30061.719	0
1	3428	30063.382	0
1	3435	30111.351	0
1	3437	30117.908	0
1	3442	30146.01	0
1	3449	30211.278	0
1	3462	30411.508	0
1	3465	30415.861	0
1	3475	30452.799	0
1	3478	30469.634	0
1	3487	30553.417	0
1	3498	30684.068	0
1	3501	30695.281	0
1	3506	30709.393	0
1	3517	30758.578	0
1	3522	30816.438	0
1	3524	30817.295	0
1	3531	30871.843	0
1	3540	30939.945	0
1	3557	31116.269	0
1	3560	31129.197	0
1	3572	31213.469	0
1	3575	31222.98	0
1	3578	31242.69	0
1	3583	31261.757	0
1	3588	31285.27	0
1	3594	31341.993	0
1	3606	31450.243	0
1	3610	31455.213	0
1	3617	31514.057	0
1	3628	31576.16	0
1	3633	31623.383	0
1	3644	31717.365	0
1	3647	31731.193	0
1	3653	31776.279	0
1	3658	31791.463	0
1	3677	32099.364	0
1	3685	32204.859	0
1	3700	32408.9	0
1	3703	32417.076	0
1	3706	32440.248	0
1	3723	32705.3	0
1	3725	32708.865	0
1	3728	32716.153	0
1	3732	32738.167	0
1	3735	32741.408	0
1	3749	32826.36	0
1	3753	32859.036	0
1	3755	32864.302	0
1	3758	32878.093	0
1	3762	32892.187	0
1	3773	32961.465	0
1	3789	33143.805	0
1	3796	33173.571	0
1	3804	33219.108	0
1	3809	33267.805	0
1	3813	33303.95	0
1	3821	33416.843	0
1	3825	33434.097	0
1	3828	33452.817	0
1	3834	33478.743	0
1	3840	33507.735	1
1	3843	33510.753	0
1	3846	33530.791	1
1	3849	33544.117	2
1	3852	33561.496	1
1	3854	33564.488	0
1	3857	33573.771	1
1	3860	33577.72	2
1	3866	33611.688	3
1	3868	33632.574	4
1	3870	33640.134	5
1	3874	33745.934	6
1	3876	33760.266	5
1	3878	33765.484	4
1	3882	33779.8	3
1	3886	33788.097	2
1	3889	33805.885	1
1	3895	33834.343	2
1	3900	33841.891	1
1	3903	33883.757	0
1	3911	33952.47	0
1	3933	34146.054	0
1	3937	34178.37	0
1	3940	34189.786	0
1	3945	34212.184	0
1	3957	34364.451	0
1	3962	34426.932	0
1	3978	34679.096	0
1	3982	34692.211	0
1	3990	34764.133	0
1	3998	34847.7	0
1	4002	34878.615	0
1	4012	34931.752	0
1	4023	35107.977	0
1	4026	35124.425	0
1	4034	35200.393	0
1	4039	35236.868	0
1	4046	35318.722	0
1	4053	35411.105	0
1	4060	35440.498	0
1	4076	35622.705	0
1	4082	35742.961	0
1	4089	35805.865	0
1	4097	35903.136	0
1	4109	36113.727	0
1	4113	36144.365	0
1	4122	36247.829	0
1	4127	36259.57	0
1	4133	36323.38	0
1	4141	36425.364	0
1	4143	36431.574	0
1	4151	36564.035	0
1	4156	36579.974	0
1	4169	36722.71	0
1	4174	36780.742	0
1	4179	36792.246	0
1	4182	36814.272	0
1	4190	36842.768	0
1	4198	36918.882	0
1	4200	36919.833	0
1	4211	36968.792	0
1	4225	37087.652	0
1	4229	37121.239	0
1	4244	37362.287	0
1	4253	37411.256	0
1	4261	37543.798	0
1	4264	37555.984	0
1	4273	37674.18	0
1	4279	37786.35	0
1	4291	37856.549	0
1	4300	37992.597	0
1	4305	38088.334	0
1	4309	38101.311	0
1	4311	38109.293	0
1	4325	38314.886	0
1	4329	38344.125	0
1	4338	38410.282	0
1	4343	38422.115	0
1	4351	38489.353	0
1	4356	38533.328	0
1	4363	38604.454	0
1	4380	38804.432	0
1	4385	38848.506	0
1	4388	38872.652	0
1	4393	38908.93	0
1	4399	38992.22	0
1	4403	39002.505	0
1	4407	39028.589	0
1	4410	39036.196	0
1	4415	39048.088	0
1	4419	39050.532	1
1	4423	39064.339	2
1	4428	39092.84	3
1	4430	39111.197	4
1	4432	39112.149	5
1	4435	39134.598	4
1	4437	39140.321	3
1	4444	39201.157	2
1	4446	39215.893	3
1	4448	39221.146	2
1	4455	39294.998	1
1	4457	39296.943	0
1	4462	39319.105	1
1	4464	39327.935	0
1	4478	39423.08	0
1	4485	39507.353	0
1	4494	39575.444	0
1	4503	39672.636	0
1	4508	39705.431	0
1	4521	39783.37	0
1	4525	39819.047	0
1	4527	39826.453	0
1	4530	39839.349	0
1	4544	39971.545	0
1	4551	40035.039	0
1	4558	40060.936	0
1	4561	40065.919	0
1	4568	40091.131	0
1	4574	40126.438	0
1	4580	40160.401	0
1	4587	40205.307	0
1	4590	40246.593	0
1	4601	40348.819	0
1	4604	40379.935	0
1	4626	40522.615	0
1	4629	40539.163	0
1	4639	40603.273	0
1	4641	40604.299	0
1	4646	40623.819	0
1	4652	40667.919	0
1	4656	40711.345	0
1	4660	40735.037	0
1	4668	40795.798	0
1	4676	40857.051	0
1	4682	40881.422	0
1	4685	40895.247	0
1	4709	41147.567	0
1	4716	41184.912	0
1	4723	41233.36	0
1	4726	41242.832	0
1	4733	41347.362	0
1	4739	41417.81	0
1	4742	41449.763	0
1	4744	41450.014	0
1	4748	41454.375	0
1	4755	41475.339	0
1	4762	41522.622	1
1	4765	41549.378	0
1	4768	41564.203	1
1	4770	41574.612	0
1	4772	41579.227	1
1	4777	41602.246	2
1	4780	41616.868	1
1	4783	41636.883	2
1	4786	41643.53	3
1	4789	41653.352	2
1	4792	41685.254	1
1	4798	41734.413	0
1	4800	41741.136	1
1	4805	41802.693	0
1	4811	41839.322	0
1	4814	41843.92	1
1	4817	41846.536	0
1	4827	41917.425	0
1	4836	41974.171	0
1	4842	42036.444	0
1	4851	42086.879	0
1	4854	42117.3	0
1	4864	42157.585	0
1	4868	42183.557	0
1	4876	42279.584	0
1	4906	42668.108	0
1	4911	42760.057	0
1	4913	42762.828	0
1	4918	42793.326	0
1	4923	42804.576	0
1	4927	42837.815	0
1	4930	42840.441	0
1	4938	42917.009	0
1	4948	42962.416	0
1	4953	43016.702	0
1	4961	43083.12	0
1	4964	43105.909	0
2	5	60	0
2	13	120	0
2	19	180	0
2	24	240	0
2	31	300	0
2	32	360	0
2	33	420	0
2	38	480	0
2	50	540	0
2	57	600	0
2	61	660	0
2	66	720	0
2	74	780	0
2	80	840	0
2	91	900	0
2	98	960	0
2	104	1020	0
2	109	1080	0
2	115	1140	0
2	126	1200	0
2	140	1260	0
2	148	1320	0
2	161	1380	0
2	168	1440	0
2	169	1500	0
2	178	1560	0
2	188	1620	0
2	198	1680	0
2	203	1740	0
2	212	1800	0
2	219	1860	0
2	229	1920	0
2	237	1980	0
2	239	2040	0
2	249	2100	0
2	260	2160	0
2	269	2220	0
2	271	2280	0
2	277	2340	0
2	287	2400	0
2	291	2460	0