version 2
run General-0-20220113-04:46:09-14060
attr configname General
attr datetime 20220113-04:46:09
attr experiment General
attr inifile omnetpp.ini
attr iterationvars ""
attr iterationvarsf ""
attr measurement ""
attr network PolicyA
attr processid 14060
attr repetition 0
attr replication #0
attr resultdir results
attr runnumber 0
attr seedset 0

vector 0 PolicyA.queue "time spent on the queue" ETV
attr interpolationmode none
vector 1 PolicyA.queue "queue size" ETV
attr interpolationmode none
vector 2 PolicyA.queue "client processing order" ETV
attr interpolationmode none
vector 3 PolicyA.queue "processing time with client order" ETV
attr interpolationmode none
0	2	0	0
0	5	31.835	0
0	9	82.072	0
0	12	119.001	0
0	18	150.489	0
0	21	172.531	0
0	32	255.3	41.243
0	35	274.058	36.98
0	38	299.04	47.836
0	44	340.145	0
0	49	359.489	0
0	58	422.245	0
0	63	452.352	0
0	67	485.929	0
0	75	589.859	0
0	77	592.806	0
0	84	609.269	0
0	88	612.321	2.235
0	100	755.498	127.042
0	103	765.184	76.497
0	109	781.295	86.559
0	117	881.392	105.043
0	126	995.637	193.62
0	134	1032.081	165.504
0	141	1067.632	176.298
0	147	1086.846	134.851
0	157	1172.929	175.496
0	162	1190.921	188.453
0	167	1199.52	156.195
0	171	1229.021	179.507
0	177	1275.628	195.281
0	182	1288.473	151.271
0	186	1292.882	151.202
0	193	1322.793	159.69
0	198	1349.967	161.196
0	201	1370.509	173.49
0	207	1418.159	167.728
0	210	1431.251	147.207
0	212	1439.089	149.234
0	220	1507.795	202.269
0	222	1507.917	164.511
0	228	1528.913	147.125
0	231	1552.597	77.652
0	235	1569.914	56.989
0	242	1605.979	0
0	246	1649.935	0
0	254	1694.359	0
0	257	1703.807	0
0	263	1764.87	55.542
0	267	1766.651	1.761
0	274	1802.332	0
0	283	1836.109	0
0	288	1859.202	0
0	296	2037.382	0
0	300	2041.687	0
0	303	2051.059	0
0	309	2102.946	44.85
0	322	2272.5	0
0	326	2284.183	0
0	329	2309.301	0
0	332	2320.512	0
0	338	2342.144	14.707
0	343	2348.055	4.118
0	350	2388.864	0
0	353	2394.812	0
0	359	2415.288	11.721
0	365	2463.831	41.863
0	374	2506.355	40.936
0	380	2525.51	59.544
0	386	2616.859	146.807
0	390	2683.338	174.282
0	398	2744.804	190.955
0	402	2761.403	57.593
0	405	2788.188	55.875
0	412	2882.79	0
0	423	2936.56	0
0	425	2938.159	0
0	430	2961.474	0
0	432	2966.596	0
0	438	2988.422	4.009
0	444	3022.15	32.681
0	449	3047.827	11.683
0	457	3065.548	8.009
0	462	3074.943	14.752
0	473	3210.358	140.391
0	479	3246.426	143.145
0	482	3265.224	81.813
0	488	3331.472	135.724
0	491	3348.786	124.588
0	493	3354.488	30.867
0	507	3422.022	64.085
0	509	3425.414	54.463
0	513	3448.614	77.287
0	519	3527.895	112.534
0	529	3585.143	95.889
0	531	3588.289	25.384
0	542	3639.604	64.398
0	545	3650.27	66.97
0	548	3654.976	51.388
0	554	3682.727	78.327
0	557	3710.864	99.254
0	560	3719.009	36.769
0	565	3727.545	0
0	573	3776.205	0
0	585	3907.211	0
0	588	3918.652	0
0	593	3952.988	0
0	597	3988.852	0
0	603	4022.821	0
0	606	4032.918	0
0	615	4155.009	0
0	618	4178.714	0
0	626	4253.652	0
0	634	4301.742	0
0	637	4315.863	0
0	644	4383.1	0
0	649	4403.301	0
0	655	4488.481	0
0	661	4523.302	0
0	669	4608.695	0
0	673	4655.87	0
0	677	4707.546	0
0	683	4745.874	10.496
0	696	4860.397	0
0	699	4901.709	0
0	703	4923.765	0
0	708	4961.061	0
0	710	4961.836	0
0	717	5018.9	31.659
0	724	5030.414	0
0	728	5044.118	0
0	735	5082.613	0
0	741	5105.011	0
0	744	5110.834	0
0	749	5125.003	0
0	754	5158.759	0
0	762	5194.508	0
0	768	5228.671	0
0	773	5271.031	0
0	779	5313.265	0
0	782	5335.849	0
0	795	5426.594	0
0	798	5444.921	0
0	804	5467.819	0
0	810	5556.816	0
0	814	5622.452	0
0	818	5671.133	0
0	822	5676.328	0.97
0	829	5719.563	40.01
0	837	5780.324	0
0	848	6050.94	0
0	851	6057.415	0
0	862	6138.451	0
0	865	6145.544	0
0	871	6183.783	0
0	873	6189.07	0
0	880	6249.463	0
0	884	6315.332	0
0	891	6349.007	0
0	897	6369.922	0
0	900	6372.789	0
0	906	6420.607	0
0	911	6452.88	8.101
0	919	6495.992	0
0	929	6576.503	0
0	937	6724.901	0
0	943	6802.364	0
0	945	6802.835	0
0	950	6860.747	0
0	956	6913.119	0
0	959	6920.651	0
0	971	6979.311	29.215
0	973	6979.399	27.068
0	977	6984.203	15.313
0	982	7011.439	33.623
0	986	7031.52	45.791
0	991	7053.465	4.599
0	996	7076.691	10.879
0	1003	7171.101	0
0	1011	7225.262	5.409
0	1014	7241.527	20.38
0	1020	7282.38	0
0	1028	7321.239	0
0	1035	7355.676	0
0	1038	7366.543	0
0	1045	7475.397	0
0	1053	7513.47	0
0	1056	7544.153	0
0	1060	7579.808	0
0	1068	7653.886	21.687
0	1084	7738.066	90.912
0	1088	7756.605	77.132
0	1092	7815.046	126.023
0	1100	7872.513	174.069
0	1103	7907.298	198.79
0	1106	7919.215	202.466
0	1110	7962.407	235.784
0	1113	7971.241	129.055
0	1116	7979.78	110.624
0	1124	8009.735	0
0	1127	8032.531	0
0	1133	8080.469	32.991
0	1140	8095.152	0
0	1146	8114.129	0
0	1149	8122.048	0
0	1154	8142.491	19.443
0	1161	8235.425	35.243
0	1166	8245.684	0
0	1174	8337.11	67.243
0	1180	8356.781	56.149
0	1182	8359.832	21.838
0	1189	8428.788	0
0	1195	8462.922	24.354
0	1209	8526.113	44.029
0	1211	8529.24	34.932
0	1218	8591.093	90.881
0	1222	8644.473	143.426
0	1227	8667.639	156.178
0	1233	8730.525	162.249
0	1239	8802.151	139.961
0	1242	8804.159	106.469
0	1250	8826.26	57.444
0	1255	8844.53	36.054
0	1258	8852.147	28.72
0	1262	8888.949	52.739
0	1267	8917.386	17.187
0	1274	9022.326	0
0	1282	9068.851	0
0	1285	9078.56	0
0	1298	9196.339	0
0	1302	9248.839	0
0	1305	9260.557	0
0	1308	9270.154	0
0	1316	9308.05	8.687
0	1318	9309.303	8.9
0	1326	9350.137	0
0	1330	9372.251	0
0	1335	9390.998	0
0	1345	9437.286	21.375
0	1351	9516.751	87.831
0	1354	9534.132	96.958
0	1358	9550.783	78.258
0	1363	9558.887	6.6
0	1373	9613.517	16.292
0	1379	9664.062	61.171
0	1384	9694.497	83.916
0	1392	9724.953	63.899
0	1399	9742.121	60.896
0	1402	9750.424	35.864
0	1405	9761.368	38.71
0	1410	9770.122	38.294
0	1414	9782.761	43.722
0	1417	9802.367	36.546
0	1423	9878.646	0
0	1429	9933.885	0
0	1444	10027.505	0
0	1447	10030.989	0
0	1450	10063.125	0
0	1456	10098.254	0
0	1463	10228.994	0
0	1470	10242.815	0
0	1473	10253.836	0
0	1476	10258.063	0
0	1478	10258.726	0
0	1489	10291.172	0
0	1493	10335.508	0
0	1497	10397.021	0
0	1502	10414.453	4.196
0	1508	10446.519	0.947
0	1518	10548.24	100.024
0	1522	10563.67	86.724
0	1525	10589.375	77.686
0	1531	10663.947	0.497
0	1537	10708.909	28.95
0	1548	10810.316	0
0	1551	10820.859	0
0	1560	10940.147	0
0	1567	11053.613	0
0	1571	11117.831	0
0	1578	11157.65	0
0	1585	11240.6	0
0	1588	11254.47	0
0	1598	11330.074	0
0	1602	11368.554	0
0	1604	11369.087	0
0	1612	11515.473	0
0	1616	11521.886	0
0	1627	11682.204	0
0	1631	11708.236	0
0	1636	11735.754	0
0	1642	11776.561	0
0	1647	11794.953	0
0	1650	11800.842	0
0	1658	11869.907	0
0	1661	11878.328	0
0	1671	11906.97	0
0	1674	11917.13	0
0	1677	11921.249	0
0	1686	12000.525	0
0	1695	12144.883	0
0	1702	12274.482	0
0	1709	12369.298	0
0	1715	12428.795	0
0	1720	12445.002	0
0	1722	12448.385	0
0	1726	12462.757	0
0	1738	12501.115	27.787
0	1741	12509.294	30.281
0	1744	12515.401	20.648
0	1747	12521.125	24.176
0	1754	12619.143	0
0	1760	12678.031	0
0	1767	12684.388	0
0	1769	12687.702	0
0	1775	12699.243	0
0	1781	12743.838	0
0	1791	12834.722	79.623
0	1795	12863.743	86.818
0	1799	12865.409	32.689
0	1806	12944.881	79.56
0	1810	12950.688	6.565
0	1817	12974.026	25.842
0	1820	12990.571	29.781
0	1824	12997.073	0.43
0	1831	13022.53	0
0	1836	13052.415	17.726
0	1841	13068.51	9.458
0	1847	13099.468	10.673
0	1854	13136.375	0
0	1858	13149.711	0
0	1863	13168.828	0
0	1875	13225.601	48.779
0	1878	13232.876	27.574
0	1884	13275.589	66.674
0	1893	13388.694	177.438
0	1896	13408.703	154.29
0	1898	13411.89	97.148
0	1901	13418.768	43.929
0	1907	13432.753	12.166
0	1911	13439.311	0
0	1917	13442.172	2.472
0	1925	13467.66	15.217
0	1929	13512.262	51.04
0	1934	13529.108	7.468
0	1945	13625.338	0
0	1949	13689.675	0
0	1951	13692.878	0
0	1957	13727.492	9.257
0	1961	13732.893	0
0	1968	13775.224	15.522
0	1981	13887.894	0
0	1985	13929.384	0
0	1987	13930.824	0
0	1994	13992.058	0
0	2001	14020.593	0
0	2009	14051.323	0
0	2014	14097.075	0
0	2018	14110.082	0
0	2020	14115.6	0
0	2024	14131.362	0
0	2039	14256.675	0
0	2042	14264.962	0
0	2049	14358.692	0
0	2054	14390.085	0
0	2060	14414.504	0
0	2066	14500.001	0
0	2070	14524.545	0
0	2073	14576.063	0
0	2077	14596.431	0
0	2085	14690.186	0
0	2089	14737.037	0
0	2097	14785.146	0
0	2102	14801.029	0
0	2110	14857.58	0
0	2116	14898.011	0
0	2119	14908.99	0
0	2121	14915.99	0
0	2128	14972.277	55.894
0	2132	14980.045	0
0	2141	15058.758	68.109
0	2145	15072.189	45.78
0	2153	15149.332	0
0	2158	15173.774	0
0	2165	15295.132	0
0	2171	15329.429	0
0	2179	15398.192	0
0	2186	15493.999	0
0	2192	15561.608	0
0	2195	15568.554	0
0	2203	15608.205	0
0	2206	15628.534	0
0	2208	15631.125	0
0	2220	15741.549	0
0	2223	15753.522	0
0	2227	15829.151	0
0	2248	15942.675	112.169
0	2254	15964.88	119.706
0	2257	15979.403	129.126
0	2263	16049.819	181.979
0	2266	16059.472	168.161
0	2269	16079.212	170.255
0	2273	16100.672	171.827
0	2276	16132.717	203.213
0	2282	16150.268	190.405
0	2285	16166.749	132.22
0	2291	16224.137	83.64
0	2296	16228.861	6.912
0	2301	16241.713	17.46
0	2306	16259.564	19.488
0	2310	16266.609	15.704
0	2318	16324.087	0
0	2320	16324.716	0
0	2328	16379.447	25.945
0	2334	16388.681	32.359
0	2343	16416.088	28.304
0	2346	16424.988	35.884
0	2350	16445.159	46.057
0	2353	16454.975	44.195
0	2360	16492.117	22.36
0	2362	16497.783	23.117
0	2377	16634.569	0
0	2386	16780.951	0
0	2394	16966.562	0
0	2398	16987.603	0
0	2401	16994.718	0
0	2406	17035.447	0
0	2410	17062.405	0
0	2420	17244.318	0
0	2423	17247.019	0
0	2433	17308.177	0
0	2438	17321.786	0
0	2441	17332.838	0
0	2445	17376.286	0
0	2448	17387.584	0
0	2454	17431.432	0
0	2462	17496.385	35.818
0	2464	17497.818	15.179
0	2473	17533.026	22.846
0	2477	17589.567	65.853
0	2482	17619.732	26.853
0	2490	17677.952	31.462
0	2494	17710.631	46.255
0	2506	17803.202	0
0	2513	17906.795	0
0	2515	17908.679	0
0	2524	17962.36	0
0	2527	17979.5	0
0	2535	18046.989	0
0	2543	18216.31	0
0	2548	18355.224	0
0	2557	18449.357	0
0	2560	18463.428	0
0	2570	18656.617	0
0	2574	18668.093	0
0	2577	18672.571	0
0	2588	18793.17	0
0	2591	18803.803	0
0	2595	18850.62	0
0	2597	18853.025	0
0	2608	18952.45	0
0	2615	19037.838	0
0	2618	19050.56	0
0	2625	19069.621	0
0	2629	19088.376	0
0	2639	19143.634	0
0	2642	19154.496	0
0	2645	19162.039	0
0	2648	19185.901	0
0	2654	19222.737	22.313
0	2662	19273.525	0
0	2665	19284.384	0
0	2670	19312.302	0
0	2681	19426.599	0
0	2685	19466.804	0
0	2693	19547.587	0
0	2704	19660.263	0
0	2710	19715.837	0
0	2716	19763.939	0
0	2723	19901.577	0
0	2732	20108.982	0
0	2735	20133.028	0
0	2737	20135.968	0
0	2742	20173.812	0
0	2744	20180.424	0
0	2750	20204.157	0
0	2760	20262.872	53.085
0	2765	20279.458	32.605
0	2769	20294.737	43.668
0	2771	20296.184	25.812
0	2782	20399.385	0
0	2786	20431.049	0
0	2789	20443.903	0
0	2795	20479.785	0
0	2803	20570.613	0
0	2807	20591.497	0
0	2812	20623.622	0
0	2820	20679.448	43.147
0	2824	20706.707	46.095
0	2832	20800.975	0
0	2835	20812.398	0
0	2841	20840.596	0
0	2849	20891.409	35.948
0	2857	20987.022	112.886
0	2861	21005.066	40.83
0	2863	21005.361	40.05
0	2870	21067.925	47.067
0	2876	21124.023	0
0	2888	21203.336	0
0	2890	21205.333	0
0	2899	21298.034	0
0	2903	21321.667	0
0	2905	21326.088	0
0	2909	21354.823	0
0	2915	21408.721	0
0	2923	21454.363	0
0	2927	21493.318	0
0	2933	21542.906	0
0	2940	21582.164	30.085
0	2946	21632.083	63.28
0	2960	21718.475	108.914
0	2964	21729.08	87.724
0	2967	21753.328	99.236
0	2979	21838.364	152.89
0	2989	21886.282	194.389
0	2992	21896.631	191.448
0	2996	21918.694	135.909
0	2999	21941.183	144.151
0	3002	21953.169	155.82
0	3005	21959.495	137.482
0	3009	21969.187	128.522
0	3011	21970.853	129.195
0	3017	21982.188	110.283
0	3027	22021.3	47.296
0	3030	22031.481	35.306
0	3032	22038.109	41.592
0	3036	22058.611	49.006
0	3047	22148.381	0
0	3050	22182.81	0
0	3058	22230.343	0
0	3062	22274.927	0
0	3073	22393.855	0
0	3075	22393.963	0
0	3079	22404.266	0
0	3085	22440.957	0
0	3088	22476.498	0
0	3097	22608.124	0
0	3099	22608.805	0
0	3107	22701.956	49.132
0	3112	22720.035	0
0	3122	22790.971	42.418
0	3130	22855.895	91.085
0	3136	22878.909	112.918
0	3139	22881.277	52.7
0	3147	22949.041	116.372
0	3150	22959.735	95.791
0	3153	22971.334	84.052
0	3157	22990.989	56.346
0	3162	23018.103	17.726
0	3170	23058.443	36.94
0	3177	23172.547	120.059
0	3179	23172.954	33.157
0	3188	23240.239	15.596
0	3193	23256.006	25.633
0	3201	23321.629	70.527
0	3207	23391.446	108.877
0	3209	23397.179	75.728
0	3219	23514.621	165.226
0	3221	23518.109	66.493
0	3228	23566.114	109.343
0	3235	23574.854	15.366
0	3239	23603.365	30.339
0	3242	23618.87	44.087
0	3248	23675.704	0
0	3253	23691.863	8.475
0	3259	23740.324	41.716
0	3268	23820.189	0
0	3271	23834.458	0
0	3275	23841.454	0
0	3281	23876.164	0
0	3287	23922.944	23.128
0	3293	23995.201	0
0	3305	24059.386	57.2
0	3309	24077.322	68.829
0	3312	24085.766	60.916
0	3322	24150.571	102.509
0	3325	24162.634	75.282
0	3327	24165.516	30.474
0	3330	24170.593	24.182
0	3339	24230.722	0
0	3341	24233.243	0
0	3348	24258.992	0
0	3356	24312.857	0
0	3364	24404.193	0
0	3368	24448.854	0
0	3373	24478.965	0
0	3377	24493.487	0
0	3394	24741.323	0
0	3397	24759.312	0
0	3401	24784.756	0
0	3406	24803.764	0
0	3415	24959.31	0
0	3419	24966.988	0
0	3422	24982.887	0
0	3430	25028.508	0
0	3432	25031.12	0
0	3441	25135.107	0
0	3445	25161.083	0
0	3450	25174.446	0
0	3453	25185.34	0
0	3459	25214.538	0.294
0	3467	25280.345	47.751
0	3474	25319.467	62.483
0	3478	25336.861	44.01
0	3481	25352.1	36.639
0	3490	25456.387	0
0	3492	25460.46	0
0	3499	25503.263	0
0	3506	25539.027	0
0	3510	25582.083	0
0	3515	25602.334	0
0	3531	25891.673	0
0	3534	25909.021	0
0	3538	25960.141	0
0	3544	26000.739	0
0	3550	26067.816	0
0	3559	26217.382	0
0	3566	26305.598	0
0	3574	26363.45	0
0	3578	26411.376	0
0	3583	26427.725	0
0	3588	26434.117	0
0	3590	26436.704	0
0	3592	26437.581	0
0	3600	26462.262	13.603
0	3605	26492.874	14.69
0	3613	26537.511	0
0	3622	26665.026	0
0	3625	26670.018	0
0	3627	26674.545	0
0	3634	26709.571	0
0	3640	26764.293	0
0	3650	26839.688	0
0	3655	26949.538	0
0	3664	27113.535	0
0	3668	27133.955	0
0	3673	27153.098	0
0	3676	27159.496	0
0	3684	27205.695	0
0	3688	27248.468	0
0	3696	27327.706	0
0	3698	27331.799	0
0	3704	27345.29	9.708
0	3710	27374.199	0
0	3715	27391.431	6.172
0	3721	27421.587	28.922
0	3732	27560.476	0
0	3734	27562.889	0
0	3738	27575.538	0
0	3749	27661.884	81.422
0	3751	27667.026	60.426
0	3755	27677.151	42.148
0	3768	27791.409	0
0	3774	27869.24	0
0	3777	27874.232	0
0	3780	27886.889	0
0	3784	27907.576	0
0	3789	27927.997	0
0	3801	27972.512	0
0	3804	27989.42	0
0	3808	28039.458	0
0	3814	28080.234	0
0	3819	28100.611	0
0	3824	28123.219	0
0	3828	28161.35	0
0	3833	28175.052	10.797
0	3839	28203.526	0
0	3845	28265.992	20.08
0	3850	28297.747	0
0	3856	28328.541	0
0	3863	28362.765	29.541
0	3866	28376.643	22.649
0	3874	28430.589	16.786
0	3876	28432.159	2.868
0	3885	28479.351	0
0	3889	28532.814	0
0	3894	28547.048	9.582
0	3904	28567.74	0
0	3909	28616.33	0
0	3915	28656.621	0
0	3924	28784.527	0
0	3927	28788.888	0
0	3932	28869.635	0
0	3934	28870.82	0
0	3943	28958.509	87.641
0	3945	28960.439	58.949
0	3952	29028.587	0
0	3964	29075.848	29.089
0	3968	29127.782	72.566
0	3974	29189.366	116.596
0	3977	29207.189	133.647
0	3988	29287.262	138.275
0	3994	29292.85	69.859
0	3998	29310.638	47.506
0	4016	29349	75.782
0	4018	29354.674	66.765
0	4021	29358.176	66.909
0	4024	29367.178	45.086
0	4030	29384.594	62.153
0	4037	29398.455	71.799
0	4043	29444.362	116.696
0	4050	29543.796	203.812
0	4053	29576.77	230.553
0	4061	29627.177	278.222
0	4065	29645.333	267.536
0	4070	29659.155	274.283
0	4080	29718.282	331.143
0	4082	29723.019	303.07
0	4086	29736.849	230.404
0	4089	29751.794	154.32
0	4092	29756.225	149.845
0	4100	29784.448	128.147
0	4105	29801.524	115.172
0	4108	29806.469	102.92
0	4111	29818.581	112.111
0	4117	29878.301	110.996
0	4126	29941.577	173.097
0	4130	30056.359	270.635
0	4136	30119.78	243.64
0	4142	30142.6	222.404
0	4144	30148.824	220.065
0	4155	30193.792	90.233
0	4165	30254.891	116.662
0	4172	30271.979	109.405
0	4180	30307.055	125.592
0	4183	30319.928	126.742
0	4185	30322.702	111.356
0	4189	30326.901	103.462
0	4196	30343.431	114.334
0	4198	30344.092	87.59
0	4205	30401.442	135.988
0	4208	30408.022	113.702
0	4212	30434.624	136.201
0	4215	30472.132	143.984
0	4217	30477.509	142.394
0	4231	30554.875	209.145
0	4233	30560.15	73.17
0	4237	30597.488	103.05
0	4241	30609.281	111.448
0	4244	30622.48	78.266
0	4257	30736.76	107.098
0	4259	30742.189	96.605
0	4263	30760.892	50.388
0	4271	30826.682	101.888
0	4279	30864.37	67.172
0	4300	31120.221	301.536
0	4305	31125.427	277.32
0	4311	31171.546	311.003
0	4313	31179.681	267.906
0	4317	31187.193	274.08
0	4325	31244.466	312.75
0	4328	31249.674	295.757
0	4334	31273.559	319.587
0	4336	31283.4	325.484
0	4343	31375.706	406.406
0	4347	31425.04	302.063
0	4351	31457.41	300.186
0	4355	31501.959	303.458
0	4363	31570.564	327.993
0	4373	31636.941	377.985
0	4381	31681.53	362.964
0	4384	31716.767	205.613
0	4386	31718.695	204.849
0	4393	31746.069	169.437
0	4398	31799.973	178.299
0	4401	31800.306	168.122
0	4407	31836.328	192.908
0	4417	31892.828	218.445
0	4421	31930.676	196.975
0	4426	31961.138	176.314
0	4430	31981.216	170.012
0	4433	32015.82	177.371
0	4436	32036.894	189.24
0	4440	32051.233	172.91
0	4442	32052.643	99.944
0	4449	32100.238	0
0	4456	32112.814	8.254
0	4462	32177.218	65.856
0	4476	32255.318	83.009
0	4479	32270.138	86.479
0	4485	32299.408	112.615
0	4488	32308.823	120.54
0	4498	32355.537	146.357
0	4501	32364.981	151.247
0	4504	32389.293	91.491
0	4515	32516.602	207.476
0	4521	32568.198	222.775
0	4537	32621.43	271.006
0	4541	32660.137	250.53
0	4551	32721.526	311.812
0	4559	32801.773	372.169
0	4565	32841.348	304.504
0	4569	32920.268	338.61
0	4571	32925.354	333.528
0	4575	32936.553	318.308
0	4581	32972.135	352.887
0	4584	32991.333	370.452
0	4592	33024.854	403.673
0	4598	33067.364	405.35
0	4600	33070.87	387.866
0	4606	33092.206	390.248
0	4610	33124.436	373.627
0	4613	33140.03	352.961
0	4616	33148.326	311.875
0	4619	33160.761	200.854
0	4627	33180.65	178.281
0	4629	33190.147	170.087
0	4632	33194.565	130.372
0	4638	33227.056	138.446
0	4642	33264.888	93.292
0	4644	33268.032	88.35
0	4650	33282.299	64.816
0	4653	33286.381	17.08
0	4659	33314.637	0
0	4666	33336.8	0
0	4668	33339.427	0
0	4674	33351.706	0
0	4689	33459.468	0
0	4692	33469.171	0
0	4697	33547.343	0
0	4705	33612.303	0
0	4708	33619.237	0
0	4711	33656.464	0
0	4716	33661.381	0
0	4722	33704.926	0
0	4726	33745.511	0
0	4732	33812.35	0
0	4741	33838.46	0
0	4750	33937	0
0	4753	33939.024	0
0	4756	33952.887	0
0	4764	34003.105	0
0	4768	34024.764	0
0	4770	34032.36	0
0	4781	34102.033	0
0	4787	34170.038	0
0	4790	34195.671	0
0	4799	34281.25	0
0	4805	34334.114	0
0	4808	34355.201	0
0	4811	34373.906	0
0	4817	34411.627	8.724
0	4825	34490.854	0
0	4831	34544.32	0
0	4833	34544.527	0
0	4838	34551.342	0
0	4845	34597.438	0
0	4854	34728.023	81.007
0	4869	34803.568	148.76
0	4876	34841.065	111.722
0	4881	34930.132	174.36
0	4883	34932.466	170.646
0	4891	34954.925	187.641
0	4899	34996.556	211.483
0	4902	35004.709	180.777
0	4905	35038.699	203.824
0	4909	35054.136	116.544
0	4912	35092.578	141.688
0	4915	35100.678	145.295
0	4919	35115.633	123.577
0	4924	35134.692	10.549
0	4929	35151.225	0
0	4938	35242.915	0
0	4941	35251.123	0
0	4947	35281.552	0
0	4959	35355.225	57.876
0	4962	35393.906	81.333
0	4968	35412.872	91.169
0	4973	35432.027	86.637
0	4976	35446.355	37.302
0	4978	35450.376	23.637
0	4988	35525.329	0
0	4995	35577.341	0
0	4999	35591.036	0
0	5002	35625.518	0
0	5012	35685.934	0
0	5018	35749.439	0
0	5022	35766.335	0
0	5026	35825.274	0
0	5031	35878.53	0
0	5037	35917.392	32.759
0	5043	35987.013	22
0	5053	36009.712	21.412
0	5063	36088.963	98.811
0	5066	36104.3	98.409
0	5071	36116.761	87.075
0	5077	36151.574	88.329
0	5081	36209.727	138.923
0	5089	36271.895	162.264
0	5097	36309.796	176.053
0	5110	36423.134	181.468
0	5113	36427.786	165.592
0	5118	36436.317	159.194
0	5123	36472.836	174.151
0	5127	36499.035	133.744
0	5130	36528.23	145.819
0	5139	36609.11	201.803
0	5144	36646.033	229.223
0	5148	36672.511	243.406
0	5152	36679.609	216.227
0	5158	36692.393	128.702
0	5164	36742.94	162.962
0	5167	36758.656	135.612
0	5170	36775.87	101.187
0	5173	36779.465	97.594
0	5177	36799.574	62.534
0	5183	36894.504	0
0	5191	36952.751	24.812
0	5199	36999.668	53.38
0	5203	37025.699	64.778
0	5205	37025.991	48.307
0	5214	37084.147	49.815
0	5216	37084.648	7.478
0	5222	37131.677	21.688
0	5228	37143.556	7.026
0	5238	37229.101	0
0	5242	37261.456	0
0	5246	37331.603	0
0	5254	37383.326	0
0	5256	37384.899	0
0	5266	37517.841	0
0	5269	37527.619	0
0	5280	37621.003	0
0	5282	37622.758	0
0	5288	37639.364	0
0	5290	37643.567	0
0	5297	37683.764	5.057
0	5307	37747.304	0
0	5310	37761.468	0
0	5313	37768.013	0
0	5319	37802.978	18.93
0	5324	37851.303	0
0	5330	37865.557	8.203
0	5337	37886.258	18.586
0	5342	37918.873	34.111
0	5349	38002.31	106.431
0	5353	38066.152	121.345
0	5358	38096.608	0
0	5364	38153.194	5.863
0	5370	38163.709	0
0	5377	38215.754	0
0	5384	38283.293	0
0	5387	38293.112	0
0	5398	38438.82	0
0	5401	38445.907	0
0	5404	38459.654	0
0	5414	38511.773	44.191
0	5420	38531.238	40.408
0	5426	38630.968	130.846
0	5434	38681.801	155.517
0	5442	38725.09	169.265
0	5449	38749.535	116.852
0	5455	38774.082	104.338
0	5459	38834.447	137.326
0	5462	38849.677	147.532
0	5466	38853.996	112.842
0	5469	38858.169	112.286
0	5485	38959.005	186.063
0	5488	38961.47	111.531
0	5490	38965.308	100.148
0	5492	38965.351	47.843
0	5498	39004.48	83.968
0	5503	39030.282	106.902
0	5508	39122.363	185.837
0	5515	39166.568	145.506
0	5519	39232.241	99.198
0	5523	39269.2	117.863
0	5538	39493.778	0
0	5543	39524.399	0
0	5546	39538.113	0
0	5552	39552.619	0
0	5555	39588.387	0
0	5564	39690.285	0
0	5570	39755.729	0
0	5578	39807.215	0
0	5581	39839.979	0
0	5586	39942.174	0
0	5594	39969.293	0
0	5602	40052.099	0
0	5608	40123.925	0
0	5611	40133.549	0
0	5617	40192.55	0
0	5619	40193.04	0
0	5621	40194.343	0
0	5631	40209.936	0
0	5636	40238.215	0
0	5644	40291.617	0
0	5647	40295.728	0
0	5655	40324.666	0
0	5663	40436.158	0
0	5667	40446.542	0
0	5672	40491.764	0
0	5676	40527.71	0
0	5678	40528.115	0
0	5685	40571.156	24.797
0	5695	40632.6	36.895
0	5698	40670.118	72.614
0	5702	40691.532	59.887
0	5707	40716.296	0
0	5717	40756.416	38.874
0	5720	40788.239	59.489
0	5722	40792.895	58.836
0	5729	40856.943	0
0	5737	40877.134	15.643
0	5740	40913.313	38.26
0	5748	40938.44	0
0	5752	40939.287	0
0	5761	40987.254	0
0	5764	41014.145	0
0	5769	41025.317	0
0	5773	41060.848	0
0	5779	41116.822	0
0	5785	41162.976	35.395
0	5790	41171.882	5.545
0	5796	41220.864	13.703
0	5806	41325.839	0
0	5810	41386.092	0
0	5817	41461.538	0
0	5820	41488.505	0
0	5834	41560.738	64.033
0	5843	41579.316	72.032
0	5851	41731.053	218.258
0	5854	41742.442	224.106
0	5858	41777.004	241.417
0	5860	41778.448	217.356
0	5869	41847.064	274.32
0	5874	41868.741	292.976
0	5878	41897.309	206.354
0	5881	41921.732	96.766
0	5884	41927.369	88.799
0	5888	41941.06	90.748
0	5893	41955.812	3.87
0	5897	41960.474	2.414
0	5904	42019.604	30.846
0	5909	42045.291	17.117
0	5915	42080.185	0
0	5919	42081.168	0
0	5925	42104.833	11.252
0	5931	42135.817	0
0	5939	42212.577	0
0	5944	42238.376	0
0	5958	42377.593	0
0	5963	42389.943	0
0	5965	42390.487	0
0	5973	42487.548	0
0	5978	42499.383	0
0	5982	42568.81	0
0	5985	42579.409	0
0	5990	42594.288	0
0	5998	42656.948	0
0	6004	42707.179	0
0	6010	42739.841	0
0	6018	42788.665	0
0	6021	42810.36	0
0	6023	42810.573	0
0	6030	42840.47	0
0	6033	42869.104	0
0	6043	42936.367	63.784
0	6047	42964.14	89.049
0	6052	42985.178	107.99
0	6061	43017.914	46.644
0	6066	43100.367	88.13
0	6071	43110.624	97.16
0	6073	43112.252	98.761
0	6080	43147.02	37.179
0	6082	43147.474	24.586
0	6089	43213.388	0
0	6096	43259.992	41.992
0	6100	43265.499	27.2
0	6106	43327.429	32.037
0	6116	43384.196	47.998
0	6121	43395.654	30.041
0	6125	43452.154	77.971
0	6134	43473.864	79.386
0	6138	43505.143	51.087
0	6141	43528.095	67.962
0	6146	43676.311	205.009
0	6152	43718.27	0
0	6160	43779.989	59.965
0	6164	43815.893	75.902
0	6170	43861.371	17.855
0	6175	43889.147	15.889
0	6180	43905.294	14.544
0	6186	43952.582	0
0	6196	44008.826	0
0	6202	44095.347	0
0	6205	44099.573	0
0	6211	44156.489	0
0	6215	44157.177	0
0	6220	44205.91	0
0	6228	44244.097	0
0	6231	44276.255	0
0	6237	44314.179	23.888
0	6243	44396.259	0
0	6249	44433.049	24.425
0	6255	44479.069	0
0	6265	44647.348	0
0	6273	44708.535	0
0	6276	44737.81	0
0	6278	44740.544	0
0	6285	44774.624	0
0	6293	44839.726	42.034
0	6295	44840.532	33.774
0	6304	44897.106	0
0	6307	44914.818	0
0	6312	44928.366	6.398
0	6318	44974.238	11.278
0	6322	44975.691	0.535
0	6328	44989.06	11.583
0	6334	45012.159	5.151
0	6342	45101.685	0
0	6350	45169.477	0
0	6354	45201.647	0
0	6360	45278.017	0
0	6369	45409.242	0
0	6372	45413.927	0
0	6380	45453.787	0
0	6391	45702.252	0
0	6399	45878.798	0
0	6403	45915.783	0
0	6405	45921.263	0
0	6411	45939.649	0
0	6413	45939.732	0
0	6422	45987.354	0
0	6433	46112.409	0
0	6436	46128.454	0
0	6442	46169.142	0
0	6445	46182.33	0
0	6456	46300.454	0
0	6460	46352.614	0
0	6463	46368.612	0
0	6471	46431.375	0
0	6474	46435.954	0
0	6482	46455.878	0
0	6485	46465.879	0
0	6489	46511.925	0
0	6496	46531.259	15.011
0	6504	46560.818	36.56
0	6509	46578.521	46.988
0	6514	46597.807	53.32
0	6516	46600.189	27.465
0	6520	46611.54	21.591
0	6526	46675.891	36.919
0	6534	46689.301	10.126
0	6537	46723.207	37.087
0	6545	46746.243	18.727
0	6548	46770.047	26.343
0	6554	46851.381	0
0	6560	46866.605	0
0	6570	46972.815	36.076
0	6576	46990.15	49.019
0	6579	47009.191	67.847
0	6585	47040.627	59.08
0	6606	47182.424	145.26
0	6609	47198.143	155.914
0	6615	47223.314	158.88
0	6619	47287.924	134.202
0	6631	47340.85	169.599
0	6641	47406.182	230.557
0	6644	47422.603	245.604
0	6650	47473.75	296.021
0	6653	47513.818	332.628
0	6657	47545.247	328.336
0	6665	47632.38	341.561
0	6671	47666.342	357.47
0	6674	47677.407	357.199
0	6677	47686.311	351.884
0	6682	47695.085	333.442
0	6688	47746.188	377.937
0	6698	47881.739	486.846
0	6701	47888.387	455.111
0	6711	47954.66	356.341
0	6714	47987.558	369.497
0	6720	48029.365	374.481
0	6726	48078.042	386.984
0	6731	48110.388	413.504
0	6735	48123.104	375.263
0	6743	48237.939	386.276
0	6747	48272.853	377.485
0	6753	48310.788	393.42
0	6758	48347.256	421.013
0	6762	48369.302	367.338
0	6765	48379.311	328.261
0	6770	48410.382	317.392
0	6774	48422.448	224.228
0	6779	48433.558	219.713
0	6782	48460.991	179.4
0	6788	48521.672	195.346
0	6791	48534.62	143.443
0	6795	48537.683	104.831
0	6804	48570.762	93.779
0	6807	48596.066	58.992
0	6809	48599.96	56.689
0	6816	48618.113	60.5
0	6819	48638.483	24.468
0	6825	48665.059	14.026
0	6833	48724.263	30.893
0	6841	48786.171	75.92
0	6847	48849.656	114.69
0	6861	48917.363	136.215
0	6864	48938.704	90.011
0	6876	49006.337	153.491
0	6878	49011.028	116.506
0	6890	49097.88	183.865
0	6893	49119.047	203.35
0	6898	49127.972	210.992
0	6902	49142.613	157.829
0	6907	49195.903	210.742
0	6911	49242.396	255.141
0	6915	49268.27	276.694
0	6918	49274.406	243.366
0	6921	49280.51	246.957
0	6931	49352.771	311.774
0	6938	49469.628	341.84
0	6942	49519.698	332.552
0	6950	49572.983	265.236
0	6955	49595.906	258.519
0	6961	49638.058	295.621
0	6972	49771.372	409.775
0	6974	49772.485	241.929
0	6980	49791.081	236.01
0	6988	49817.077	238.343
0	6991	49827.777	192.388
0	6993	49828.3	109.202
0	7001	49859.472	138.844
0	7005	49876.957	148.106
0	7011	49920.747	132.893
0	7018	49935.167	142.356
0	7021	49940.458	141.654
0	7026	49958.003	110.848
0	7034	49983.224	134.62
0	7037	50023.815	131.562
0	7041	50043.605	118.904
0	7044	50054.41	126.121
0	7047	50087.003	141.084
0	7049	50087.255	128.3
0	7058	50117.911	151.536
0	7061	50132.287	31.707
0	7066	50150.84	35.807
0	7079	50229.578	80.852
0	7082	50247.928	88.019
0	7092	50305.98	135.601
0	7096	50352.868	164.396
0	7110	50568.633	377.793
0	7117	50657.707	404.836
0	7120	50684.338	399.053
0	7122	50687.909	382.481
0	7129	50711.82	225.881
0	7132	50740.711	218.288
0	7142	50778.705	254.888
0	7144	50783.073	254.192
0	7153	50867.411	275.034
0	7159	50885.466	197.33
0	7161	50893.909	152.54
0	7169	51056.673	309.017
0	7173	51087.97	328.303
0	7189	51246.649	430.197
0	7198	51363.304	519.124
0	7201	51378.764	500.488
0	7212	51483.453	481.092
0	7217	51526.573	417.596
0	7220	51536.804	410.032
0	7223	51541.114	403.017
0	7229	51561.962	336.401
0	7232	51593.116	352.42
0	7236	51600.573	319.165
0	7241	51652.757	348.864
0	7247	51691.773	285.79
0	7250	51696.273	231.481
0	7255	51719.421	250.508
0	7261	51734.563	237.755
0	7266	51741.802	183.288
0	7269	51751.566	129.941
0	7272	51761.993	75.83
0	7275	51779.349	61.348
0	7279	51802.449	74.141
0	7281	51805.518	64.789
0	7287	51831.672	0
0	7293	51846.863	9.17
0	7298	51864.723	10.975
0	7303	51884.299	11.872
0	7307	51890.069	0.387
0	7314	51935.079	20.002
0	7325	52032.43	0
0	7331	52107.043	0
0	7334	52126.343	0
0	7336	52127.346	0
0	7343	52174.808	0
0	7351	52249.996	31.972
0	7363	52401.049	176.413
0	7368	52411.045	117.015
0	7371	52422.612	27.02
0	7377	52465.323	65.506
0	7382	52487.711	76.88
0	7394	52660.842	203.362
0	7398	52695.681	215.339
0	7403	52711.789	167.968
0	7408	52735.229	146.141
0	7414	52777.851	177.652
0	7422	52843.269	131.933